Title Card Required                                                     
SP        RHF                                                         CC-pVDZ             
Number of atoms                            I               10
Info1-9                                    I   N=           9
          20          20           0           0           0         110
           1           1           2
Full Title                                 C   N=           2
Title Card Required     
Route                                      C   N=           6
#p rhf/cc-pvdz pop=nboread nosymm int(nobasistransform) 6D 1
0F          
Charge                                     I                0
Multiplicity                               I                1
Number of electrons                        I               30
Number of alpha electrons                  I               15
Number of beta electrons                   I               15
Number of basis functions                  I               90
Number of independent functions            I               90
Number of point charges in /Mol/           I                0
Number of translation vectors              I                0
Atomic numbers                             I   N=          10
           6           1           1           6           1           6
           1           6           1           1
Nuclear charges                            R   N=          10
  6.00000000E+00  1.00000000E+00  1.00000000E+00  6.00000000E+00  1.00000000E+00
  6.00000000E+00  1.00000000E+00  6.00000000E+00  1.00000000E+00  1.00000000E+00
Current cartesian coordinates              R   N=          30
 -6.29131382E+00  3.95298002E+00  0.00000000E+00 -5.36676065E+00  2.11667156E+00
 -7.55890450E-08 -8.34312102E+00  3.94939264E+00  0.00000000E+00 -4.95877133E+00
  6.10748816E+00  1.88972612E-08 -5.95229431E+00  7.91297727E+00  5.66917837E-08
 -2.20723466E+00  6.23148175E+00  3.77945225E-08 -1.21375066E+00  4.42597013E+00
  7.55890450E-08 -8.74642484E-01  8.38595585E+00 -1.88972612E-08 -1.79912355E+00
  1.02222979E+01 -7.55890450E-08  1.17716692E+00  8.38946623E+00 -1.88972612E-08
Number of symbols in /Mol/                 I                0
Force Field                                I                0
Atom Types                                 C   N=          10
                                                            
                                                            
Int Atom Types                             I   N=          10
           0           0           0           0           0           0
           0           0           0           0
MM charges                                 R   N=          10
  0.00000000E+00  0.00000000E+00  0.00000000E+00  0.00000000E+00  0.00000000E+00
  0.00000000E+00  0.00000000E+00  0.00000000E+00  0.00000000E+00  0.00000000E+00
Integer atomic weights                     I   N=          10
          12           1           1          12           1          12
           1          12           1           1
Real atomic weights                        R   N=          10
  1.20000000E+01  1.00782504E+00  1.00782504E+00  1.20000000E+01  1.00782504E+00
  1.20000000E+01  1.00782504E+00  1.20000000E+01  1.00782504E+00  1.00782504E+00
Atom fragment info                         I   N=          10
           0           0           0           0           0           0
           0           0           0           0
Atom residue num                           I   N=          10
           0           0           0           0           0           0
           0           0           0           0
Nuclear spins                              I   N=          10
           0           1           1           0           1           0
           1           0           1           1
Nuclear ZEff                               R   N=          10
 -3.60000000E+00 -1.00000000E+00 -1.00000000E+00 -3.60000000E+00 -1.00000000E+00
 -3.60000000E+00 -1.00000000E+00 -3.60000000E+00 -1.00000000E+00 -1.00000000E+00
Nuclear ZNuc                               R   N=          10
  6.00000000E+00  1.00000000E+00  1.00000000E+00  6.00000000E+00  1.00000000E+00
  6.00000000E+00  1.00000000E+00  6.00000000E+00  1.00000000E+00  1.00000000E+00
Nuclear QMom                               R   N=          10
  0.00000000E+00  0.00000000E+00  0.00000000E+00  0.00000000E+00  0.00000000E+00
  0.00000000E+00  0.00000000E+00  0.00000000E+00  0.00000000E+00  0.00000000E+00
Nuclear GFac                               R   N=          10
  0.00000000E+00  2.79284600E+00  2.79284600E+00  0.00000000E+00  2.79284600E+00
  0.00000000E+00  2.79284600E+00  0.00000000E+00  2.79284600E+00  2.79284600E+00
MicOpt                                     I   N=          10
          -1          -1          -1          -1          -1          -1
          -1          -1          -1          -1
Number of residues                         I                0
Number of secondary structures             I                0
Number of contracted shells                I               42
Number of primitive shells                 I              118
Pure/Cartesian d shells                    I                1
Pure/Cartesian f shells                    I                1
Highest angular momentum                   I                2
Largest degree of contraction              I                8
Shell types                                I   N=          42
           0           0           0           1           1           2
           0           0           1           0           0           1
           0           0           0           1           1           2
           0           0           1           0           0           0
           1           1           2           0           0           1
           0           0           0           1           1           2
           0           0           1           0           0           1
Number of primitives per shell             I   N=          42
           8           8           1           3           1           1
           3           1           1           3           1           1
           8           8           1           3           1           1
           3           1           1           8           8           1
           3           1           1           3           1           1
           8           8           1           3           1           1
           3           1           1           3           1           1
Shell to atom map                          I   N=          42
           1           1           1           1           1           1
           2           2           2           3           3           3
           4           4           4           4           4           4
           5           5           5           6           6           6
           6           6           6           7           7           7
           8           8           8           8           8           8
           9           9           9          10          10          10
Primitive exponents                        R   N=         118
  6.66500000E+03  1.00000000E+03  2.28000000E+02  6.47100000E+01  2.10600000E+01
  7.49500000E+00  2.79700000E+00  5.21500000E-01  6.66500000E+03  1.00000000E+03
  2.28000000E+02  6.47100000E+01  2.10600000E+01  7.49500000E+00  2.79700000E+00
  5.21500000E-01  1.59600000E-01  9.43900000E+00  2.00200000E+00  5.45600000E-01
  1.51700000E-01  5.50000000E-01  1.30100000E+01  1.96200000E+00  4.44600000E-01
  1.22000000E-01  7.27000000E-01  1.30100000E+01  1.96200000E+00  4.44600000E-01
  1.22000000E-01  7.27000000E-01  6.66500000E+03  1.00000000E+03  2.28000000E+02
  6.47100000E+01  2.10600000E+01  7.49500000E+00  2.79700000E+00  5.21500000E-01
  6.66500000E+03  1.00000000E+03  2.28000000E+02  6.47100000E+01  2.10600000E+01
  7.49500000E+00  2.79700000E+00  5.21500000E-01  1.59600000E-01  9.43900000E+00
  2.00200000E+00  5.45600000E-01  1.51700000E-01  5.50000000E-01  1.30100000E+01
  1.96200000E+00  4.44600000E-01  1.22000000E-01  7.27000000E-01  6.66500000E+03
  1.00000000E+03  2.28000000E+02  6.47100000E+01  2.10600000E+01  7.49500000E+00
  2.79700000E+00  5.21500000E-01  6.66500000E+03  1.00000000E+03  2.28000000E+02
  6.47100000E+01  2.10600000E+01  7.49500000E+00  2.79700000E+00  5.21500000E-01
  1.59600000E-01  9.43900000E+00  2.00200000E+00  5.45600000E-01  1.51700000E-01
  5.50000000E-01  1.30100000E+01  1.96200000E+00  4.44600000E-01  1.22000000E-01
  7.27000000E-01  6.66500000E+03  1.00000000E+03  2.28000000E+02  6.47100000E+01
  2.10600000E+01  7.49500000E+00  2.79700000E+00  5.21500000E-01  6.66500000E+03
  1.00000000E+03  2.28000000E+02  6.47100000E+01  2.10600000E+01  7.49500000E+00
  2.79700000E+00  5.21500000E-01  1.59600000E-01  9.43900000E+00  2.00200000E+00
  5.45600000E-01  1.51700000E-01  5.50000000E-01  1.30100000E+01  1.96200000E+00
  4.44600000E-01  1.22000000E-01  7.27000000E-01  1.30100000E+01  1.96200000E+00
  4.44600000E-01  1.22000000E-01  7.27000000E-01
Contraction coefficients                   R   N=         118
  6.91583963E-04  5.32579615E-03  2.70607210E-02  1.01656846E-01  2.74574824E-01
  4.48294319E-01  2.84902611E-01  1.51948592E-02 -2.93269653E-04 -2.31803547E-03
 -1.14997860E-02 -4.68267270E-02 -1.28466169E-01 -3.01266272E-01 -2.55630702E-01
  1.09379336E+00  1.00000000E+00  5.69792516E-02  3.13207212E-01  7.60376742E-01
  1.00000000E+00  1.00000000E+00  3.34987264E-02  2.34800801E-01  8.13682958E-01
  1.00000000E+00  1.00000000E+00  3.34987264E-02  2.34800801E-01  8.13682958E-01
  1.00000000E+00  1.00000000E+00  6.91583963E-04  5.32579615E-03  2.70607210E-02
  1.01656846E-01  2.74574824E-01  4.48294319E-01  2.84902611E-01  1.51948592E-02
 -2.93269653E-04 -2.31803547E-03 -1.14997860E-02 -4.68267270E-02 -1.28466169E-01
 -3.01266272E-01 -2.55630702E-01  1.09379336E+00  1.00000000E+00  5.69792516E-02
  3.13207212E-01  7.60376742E-01  1.00000000E+00  1.00000000E+00  3.34987264E-02
  2.34800801E-01  8.13682958E-01  1.00000000E+00  1.00000000E+00  6.91583963E-04
  5.32579615E-03  2.70607210E-02  1.01656846E-01  2.74574824E-01  4.48294319E-01
  2.84902611E-01  1.51948592E-02 -2.93269653E-04 -2.31803547E-03 -1.14997860E-02
 -4.68267270E-02 -1.28466169E-01 -3.01266272E-01 -2.55630702E-01  1.09379336E+00
  1.00000000E+00  5.69792516E-02  3.13207212E-01  7.60376742E-01  1.00000000E+00
  1.00000000E+00  3.34987264E-02  2.34800801E-01  8.13682958E-01  1.00000000E+00
  1.00000000E+00  6.91583963E-04  5.32579615E-03  2.70607210E-02  1.01656846E-01
  2.74574824E-01  4.48294319E-01  2.84902611E-01  1.51948592E-02 -2.93269653E-04
 -2.31803547E-03 -1.14997860E-02 -4.68267270E-02 -1.28466169E-01 -3.01266272E-01
 -2.55630702E-01  1.09379336E+00  1.00000000E+00  5.69792516E-02  3.13207212E-01
  7.60376742E-01  1.00000000E+00  1.00000000E+00  3.34987264E-02  2.34800801E-01
  8.13682958E-01  1.00000000E+00  1.00000000E+00  3.34987264E-02  2.34800801E-01
  8.13682958E-01  1.00000000E+00  1.00000000E+00
Coordinates of each shell                  R   N=         126
 -6.29131382E+00  3.95298002E+00  0.00000000E+00 -6.29131382E+00  3.95298002E+00
  0.00000000E+00 -6.29131382E+00  3.95298002E+00  0.00000000E+00 -6.29131382E+00
  3.95298002E+00  0.00000000E+00 -6.29131382E+00  3.95298002E+00  0.00000000E+00
 -6.29131382E+00  3.95298002E+00  0.00000000E+00 -5.36676065E+00  2.11667156E+00
 -7.55890450E-08 -5.36676065E+00  2.11667156E+00 -7.55890450E-08 -5.36676065E+00
  2.11667156E+00 -7.55890450E-08 -8.34312102E+00  3.94939264E+00  0.00000000E+00
 -8.34312102E+00  3.94939264E+00  0.00000000E+00 -8.34312102E+00  3.94939264E+00
  0.00000000E+00 -4.95877133E+00  6.10748816E+00  1.88972612E-08 -4.95877133E+00
  6.10748816E+00  1.88972612E-08 -4.95877133E+00  6.10748816E+00  1.88972612E-08
 -4.95877133E+00  6.10748816E+00  1.88972612E-08 -4.95877133E+00  6.10748816E+00
  1.88972612E-08 -4.95877133E+00  6.10748816E+00  1.88972612E-08 -5.95229431E+00
  7.91297727E+00  5.66917837E-08 -5.95229431E+00  7.91297727E+00  5.66917837E-08
 -5.95229431E+00  7.91297727E+00  5.66917837E-08 -2.20723466E+00  6.23148175E+00
  3.77945225E-08 -2.20723466E+00  6.23148175E+00  3.77945225E-08 -2.20723466E+00
  6.23148175E+00  3.77945225E-08 -2.20723466E+00  6.23148175E+00  3.77945225E-08
 -2.20723466E+00  6.23148175E+00  3.77945225E-08 -2.20723466E+00  6.23148175E+00
  3.77945225E-08 -1.21375066E+00  4.42597013E+00  7.55890450E-08 -1.21375066E+00
  4.42597013E+00  7.55890450E-08 -1.21375066E+00  4.42597013E+00  7.55890450E-08
 -8.74642484E-01  8.38595585E+00 -1.88972612E-08 -8.74642484E-01  8.38595585E+00
 -1.88972612E-08 -8.74642484E-01  8.38595585E+00 -1.88972612E-08 -8.74642484E-01
  8.38595585E+00 -1.88972612E-08 -8.74642484E-01  8.38595585E+00 -1.88972612E-08
 -8.74642484E-01  8.38595585E+00 -1.88972612E-08 -1.79912355E+00  1.02222979E+01
 -7.55890450E-08 -1.79912355E+00  1.02222979E+01 -7.55890450E-08 -1.79912355E+00
  1.02222979E+01 -7.55890450E-08  1.17716692E+00  8.38946623E+00 -1.88972612E-08
  1.17716692E+00  8.38946623E+00 -1.88972612E-08  1.17716692E+00  8.38946623E+00
 -1.88972612E-08
Num ILSW                                   I              100
ILSW                                       I   N=         100
           0           1           0           0           2           0
           0           0           0           0           0          -1
           5           0           0           1           0           0
           0           0           0           0           0           0
           1           1           0           0           0           0
           0           0      100000           0          -1           0
           0           0           0           0           0           0
           0           0           0           1           0           0
           0 -2000000000           1           0           0           0
           0           0           4          52           0           0
           0           0           0           0           0           0
           0           0           0          10           0           1
           0           0           0           0           0           0
           0           0           0           0           0           0
           0           0           0           0           0           0
           0           0           0           0           0           0
           0           0           0           0
Num RLSW                                   I               52
RLSW                                       R   N=          52
  1.00000000E+00  1.00000000E+00  1.00000000E+00  1.00000000E+00  1.00000000E+00
  0.00000000E+00  0.00000000E+00  1.00000000E+00  0.00000000E+00  0.00000000E+00
  0.00000000E+00  0.00000000E+00  1.00000000E+00  0.00000000E+00  0.00000000E+00
  0.00000000E+00  0.00000000E+00  1.00000000E+00  0.00000000E+00  0.00000000E+00
  0.00000000E+00  0.00000000E+00  1.00000000E+00  0.00000000E+00  0.00000000E+00
  0.00000000E+00  0.00000000E+00  1.00000000E+00  0.00000000E+00  0.00000000E+00
  0.00000000E+00  0.00000000E+00  1.00000000E+00  0.00000000E+00  0.00000000E+00
  0.00000000E+00  0.00000000E+00  0.00000000E+00  1.00000000E+00  1.00000000E+00
  0.00000000E+00  1.00000000E+00  0.00000000E+00  0.00000000E+00  0.00000000E+00
  0.00000000E+00  0.00000000E+00  0.00000000E+00  0.00000000E+00  0.00000000E+00
  0.00000000E+00  0.00000000E+00
MxBond                                     I                3
NBond                                      I   N=          10
           3           1           1           3           1           3
           1           3           1           1
IBond                                      I   N=          30
           2           3           4           1           0           0
           1           0           0           1           5           6
           4           0           0           4           7           8
           6           0           0           6           9          10
           8           0           0           8           0           0
RBond                                      R   N=          30
  1.00000000E+00  1.00000000E+00  2.00000000E+00  1.00000000E+00  0.00000000E+00
  0.00000000E+00  1.00000000E+00  0.00000000E+00  0.00000000E+00  2.00000000E+00
  1.00000000E+00  1.00000000E+00  1.00000000E+00  0.00000000E+00  0.00000000E+00
  1.00000000E+00  1.00000000E+00  2.00000000E+00  1.00000000E+00  0.00000000E+00
  0.00000000E+00  2.00000000E+00  1.00000000E+00  1.00000000E+00  1.00000000E+00
  0.00000000E+00  0.00000000E+00  1.00000000E+00  0.00000000E+00  0.00000000E+00
Virial Ratio                               R      2.002642744089099E+00
SCF Energy                                 R     -1.549346800334078E+02
Total Energy                               R     -1.549346800334078E+02
RMS Density                                R      5.458055059688549E-09
Job Status                                 I                1
Nuclear derivative order                   I                0
External E-field                           R   N=          35
  0.00000000E+00  0.00000000E+00  0.00000000E+00  0.00000000E+00  0.00000000E+00
  0.00000000E+00  0.00000000E+00  0.00000000E+00  0.00000000E+00  0.00000000E+00
  0.00000000E+00  0.00000000E+00  0.00000000E+00  0.00000000E+00  0.00000000E+00
  0.00000000E+00  0.00000000E+00  0.00000000E+00  0.00000000E+00  0.00000000E+00
  0.00000000E+00  0.00000000E+00  0.00000000E+00  0.00000000E+00  0.00000000E+00
  0.00000000E+00  0.00000000E+00  0.00000000E+00  0.00000000E+00  0.00000000E+00
  0.00000000E+00  0.00000000E+00  0.00000000E+00  0.00000000E+00  0.00000000E+00
IOpCl                                      I                0
IROHF                                      I                0
Alpha Orbital Energies                     R   N=          90
 -1.12457899E+01 -1.12449722E+01 -1.12370891E+01 -1.12370805E+01 -1.08974893E+00
 -9.98154500E-01 -8.25283788E-01 -7.50900480E-01 -6.41054090E-01 -6.30798967E-01
 -5.54953535E-01 -5.40360808E-01 -4.89820770E-01 -4.41491035E-01 -3.20807369E-01
  1.18597273E-01  2.02669296E-01  2.06019052E-01  2.14402975E-01  2.41960912E-01
  2.68808811E-01  2.76234686E-01  2.93303734E-01  4.29369428E-01  4.41926006E-01
  5.46995142E-01  5.76686883E-01  5.93856760E-01  6.65757323E-01  6.73828793E-01
  6.93419539E-01  7.32757347E-01  7.61593129E-01  7.79090380E-01  8.10334090E-01
  8.27637850E-01  8.66547727E-01  8.80960222E-01  9.21988092E-01  9.32945508E-01
  9.72687325E-01  9.91566314E-01  1.07604661E+00  1.12260127E+00  1.17255082E+00
  1.17624089E+00  1.20521021E+00  1.22560437E+00  1.24154741E+00  1.28450868E+00
  1.32100485E+00  1.35400979E+00  1.44509459E+00  1.59257192E+00  1.69799764E+00
  1.70678915E+00  1.73049331E+00  1.75082226E+00  1.75207645E+00  1.83924550E+00
  1.86443777E+00  1.86902130E+00  1.90219707E+00  1.91980251E+00  1.93944502E+00
  2.00168192E+00  2.02377828E+00  2.07803886E+00  2.15343583E+00  2.17330615E+00
  2.21730980E+00  2.23540978E+00  2.41946560E+00  2.42623669E+00  2.43975667E+00
  2.47558484E+00  2.52304737E+00  2.54352209E+00  2.60043447E+00  2.66183380E+00
  2.77091023E+00  2.81078630E+00  2.94185743E+00  2.94783081E+00  3.02239603E+00
  3.03376289E+00  3.34864511E+00  3.35876829E+00  3.61954524E+00  4.00322266E+00
Alpha MO coefficients                      R   N=        8100
  6.55065510E-02  3.61106588E-04  1.28634504E-04  1.33687994E-04  2.40166748E-04
  5.11285837E-12  1.70243557E-04  1.48059425E-04  4.08029761E-12 -1.86785304E-04
 -1.65855901E-04 -1.80603720E-04  2.55543706E-04  5.42553322E-12 -1.20404715E-12
  1.01179723E-04  6.06948795E-06 -1.64446137E-05  8.01299300E-05  3.54203997E-12
  5.91847705E-05  7.28499729E-05  3.09426089E-05  6.35829064E-05  1.19203817E-12
  7.05026201E-01  3.02144207E-03 -4.68308348E-04  3.18669668E-04  4.64058845E-05
  6.47296510E-12  1.42238709E-06 -3.18379044E-04 -1.02032362E-11 -1.54434240E-03
 -1.69288204E-03 -1.87649721E-03  2.47499725E-04  1.22371577E-12  7.03129203E-12
  4.42804526E-04  2.72780458E-04  6.60303058E-05 -1.28877661E-04 -4.11344239E-12
  7.04785723E-01  3.02048108E-03 -4.67825514E-04 -3.18692185E-04 -4.63966891E-05
 -2.33695088E-12 -1.44753314E-06  3.18380387E-04  3.20658290E-12 -1.54384689E-03
 -1.69244127E-03 -1.87586827E-03  2.47479482E-04 -3.43411893E-12 -6.82720494E-12
  4.42728463E-04  2.72686737E-04 -6.60345942E-05  1.28879983E-04 -4.33931378E-12
  6.54787024E-02  3.60957753E-04  1.28471075E-04 -1.33643082E-04 -2.40081004E-04
  6.38275349E-12 -1.70195902E-04 -1.47958366E-04 -2.33109627E-12 -1.86628601E-04
 -1.65804243E-04 -1.80536705E-04  2.55477361E-04 -6.63059649E-12  1.59527147E-12
  1.01136441E-04  6.04573711E-06  1.64451121E-05 -8.00952455E-05  2.68541159E-12
  5.91392703E-05  7.28451242E-05 -3.09136052E-05 -6.35675169E-05  2.39200132E-12
 -7.34630431E-02 -3.96832005E-04 -4.28728868E-04 -1.54924893E-04 -2.29701737E-04
 -3.64830805E-12 -1.17674170E-04 -2.62882993E-04 -9.34150569E-12  4.20416770E-04
  1.82763242E-04  1.75276801E-04 -1.95729124E-04 -4.42325401E-12  1.49600941E-12
 -1.32503176E-04 -7.17846928E-05 -1.21124193E-05 -1.04657101E-04 -4.42277894E-12
 -1.46000696E-04  1.89418699E-06 -1.02422432E-04 -4.18783626E-05 -2.76704426E-13
 -7.04114759E-01 -2.82254241E-03  1.38564514E-03  5.10214740E-05 -2.57931818E-05
 -9.11342055E-12  9.99005018E-05  5.10712919E-05  1.16781688E-11  1.39425807E-03
  1.29690374E-03  1.84542137E-03 -7.02325683E-05 -4.20760772E-12 -6.76578618E-12
 -2.22027929E-04 -2.86180173E-04  2.84413577E-05 -6.58765564E-06 -2.22153586E-12
  7.04356127E-01  2.82357561E-03 -1.38581217E-03  5.09125379E-05 -2.58138534E-05
  8.33829949E-13  9.99007594E-05  5.11667016E-05 -2.82853217E-12 -1.39478317E-03
 -1.29748910E-03 -1.84606354E-03  7.03497089E-05 -6.29758125E-13 -1.18457001E-11
  2.22189628E-04  2.86270633E-04  2.84206045E-05 -6.53613974E-06  7.55072700E-13
  7.34814129E-02  3.96931996E-04  4.28793444E-04 -1.54977953E-04 -2.29774620E-04
  4.46583402E-12 -1.17741939E-04 -2.62929462E-04  9.06581281E-12 -4.20452754E-04
 -1.82828945E-04 -1.75328052E-04  1.95825758E-04 -5.00008727E-12  2.03602456E-12
  1.32536825E-04  7.17808844E-05 -1.21105391E-05 -1.04684362E-04  2.85887516E-12
  1.46015212E-04 -1.87198522E-06 -1.02432632E-04 -4.18964760E-05  6.89934446E-13
  7.34175785E-01  2.90205583E-03 -1.42341787E-03 -7.73218968E-05 -1.21975101E-04
 -9.90623084E-12 -4.34450244E-05 -1.33608798E-04  1.00595475E-11 -1.58073199E-03
 -1.61393314E-03 -1.90253602E-03  7.32435816E-05  4.21913169E-13  8.02586934E-12
  3.15667216E-04  2.50327766E-04 -1.73885278E-05  6.62071423E-05  2.17150209E-12
  2.97393008E-04  2.46607191E-04  4.27715917E-05  2.78429593E-05 -3.35666751E-13
 -6.88285890E-02 -1.85873864E-04  8.48344254E-04 -1.59644463E-04 -2.70235341E-04
 -6.36926768E-12 -2.42733857E-04 -5.89361595E-04 -8.00734232E-12  5.87810645E-05
  1.83954711E-04  1.63185857E-04  3.33714444E-04  4.16843214E-12 -1.13272371E-12
  1.12018433E-04  4.22454144E-05 -7.01735243E-06 -9.46884634E-05 -2.10980199E-12
 -6.25623654E-02 -1.64130201E-04  7.22516466E-04  1.46712835E-04  2.48986464E-04
 -7.68793801E-12  2.58207623E-04  5.49892768E-04 -7.19438118E-12  6.36563325E-05
  1.72206200E-04  1.51097641E-04  3.21602273E-04 -6.16058273E-12  8.83904368E-13
  1.08045880E-04  3.44543941E-05  7.55343348E-06  8.88478440E-05 -1.82359739E-12
  6.74435529E-01  2.65965756E-03 -1.30297381E-03  7.40438835E-05  1.15284451E-04
 -6.47448611E-13  2.17693574E-05  1.28268545E-04 -5.68724872E-12 -1.44818847E-03
 -1.49180817E-03 -1.74866079E-03  6.80853367E-05 -1.04577036E-12 -5.65347491E-12
  2.90669583E-04  2.26286264E-04  1.83174796E-05 -6.28513502E-05  1.35006289E-12
  2.73129643E-04  2.33034432E-04 -3.81657023E-05 -2.58970881E-05  5.84643241E-13
 -6.73665847E-01 -2.73672411E-03  1.36070401E-03  3.53918938E-05  7.36928815E-05
  9.24174325E-12  2.53967826E-04  5.74491899E-05 -9.12837929E-12  1.49684750E-03
  1.37234427E-03  1.73470655E-03 -5.76933680E-05  4.74571526E-13 -9.33146633E-12
 -2.81515603E-04 -2.72956145E-04 -1.17563172E-05 -3.68093818E-05 -9.70479916E-13
 -2.73757163E-04 -1.49635410E-04 -5.26027538E-05 -2.17368664E-05  4.08761688E-13
  7.09624320E-02  2.48423777E-04 -1.44845039E-03  1.45817443E-04  2.39190471E-04
  5.21702664E-12 -1.92548734E-04  4.40676109E-04  9.06893537E-12  5.99716346E-05
 -1.30740169E-04 -1.35565395E-04 -1.28739133E-04 -4.46385508E-12  4.73072027E-13
 -4.20481915E-05 -9.00800628E-05 -6.56306030E-06  6.48469861E-05  6.76626460E-13
 -7.65379730E-02 -2.63270148E-04  1.51514299E-03  1.58826175E-04  2.61231695E-04
 -5.25717780E-12 -1.71272609E-04  4.89046904E-04 -2.01326055E-11 -5.47778433E-05
  1.45851759E-04  1.48901406E-04  1.56557662E-04 -6.82338336E-12 -2.28346262E-12
  5.13904683E-05  9.33391739E-05 -5.94200508E-06  7.26379801E-05 -1.02264854E-12
  7.33469442E-01  2.97285918E-03 -1.47645242E-03  4.18145446E-05  8.37578001E-05
  1.30774090E-12  2.56739528E-04  6.85631019E-05 -8.43470918E-13 -1.62545365E-03
 -1.50419474E-03 -1.88972125E-03  6.36961414E-05 -8.85463938E-13 -1.27258564E-11
  3.07255648E-04  2.93188859E-04 -1.02467284E-05 -4.22890585E-05  1.10363036E-12
  2.97986700E-04  1.69996151E-04 -5.60437114E-05 -2.40146624E-05  2.05214728E-13
 -1.34929484E-02  1.67717817E-01  6.68028428E-02  4.83749660E-02  6.40144420E-02
  3.97405294E-10 -4.23338063E-03  5.74501840E-03  3.38628056E-10  4.34925132E-04
  3.71377952E-03 -3.25388960E-03  1.17495749E-02  1.80754183E-10 -1.20549629E-11
  6.20047039E-02  5.92639867E-03 -3.92894867E-03  1.03855583E-02  4.25551832E-10
  5.28217657E-02  1.95223824E-04  9.41377311E-03  2.02955773E-03  4.13409214E-12
 -1.75260605E-02  2.57463123E-01  1.67591134E-01  3.54973371E-02 -4.23952211E-02
  2.93901402E-11  8.42703520E-03 -5.19425034E-02 -5.04950630E-10  1.71717258E-02
  4.90160589E-03 -8.93371702E-03  1.25542199E-02  2.39414838E-10  1.09727947E-10
  9.22864389E-02  1.81514095E-02  7.24073090E-03 -1.16505055E-02 -2.73477901E-10
 -1.75259526E-02  2.57462788E-01  1.67589447E-01 -3.54966874E-02  4.23926903E-02
 -1.95901643E-09 -8.42500609E-03  5.19421998E-02 -8.76629976E-10  1.71723618E-02
  4.90116803E-03 -8.93371249E-03  1.25544778E-02 -1.17985593E-10 -3.71910611E-10
  9.22874787E-02  1.81512336E-02 -7.24054089E-03  1.16507476E-02 -2.86506642E-10
 -1.34928431E-02  1.67715476E-01  6.68008976E-02 -4.83754681E-02 -6.40129190E-02
  1.50109434E-09  4.23368151E-03 -5.74487292E-03 -4.29127125E-11  4.35284522E-04
  3.71306756E-03 -3.25374177E-03  1.17495785E-02 -3.01571194E-10 -1.21347399E-10
  6.20033241E-02  5.92622614E-03  3.92852084E-03 -1.03855727E-02  3.17154017E-10
  5.28214896E-02  1.95111547E-04 -9.41382763E-03 -2.02921591E-03  6.06227780E-11
  1.75252594E-02 -2.44367591E-01 -1.46179725E-01 -3.69812190E-02 -6.79676138E-02
 -1.01338026E-10  5.45648553E-03 -1.26287460E-02 -3.26263004E-10  3.61046448E-03
 -9.52143487E-03  4.76689313E-03 -8.73533123E-03 -1.09453262E-10 -1.25496925E-10
 -9.69699378E-02 -1.09923337E-02  5.28808755E-03 -1.38200741E-02 -5.23922923E-10
 -1.00394365E-01 -4.18185103E-03 -1.62917640E-02 -1.06467332E-03  1.09363339E-11
  1.30588229E-02 -1.62458717E-01 -1.48726970E-01  1.00772492E-01  1.00183036E-01
  7.61780191E-10  3.55903785E-03  3.31561862E-02  5.37045832E-10  7.12379435E-03
 -1.34056856E-02  4.81757650E-03 -8.89838307E-03 -1.28546850E-10 -1.69846143E-10
 -5.77105380E-02 -1.02239769E-02 -1.80813928E-03  8.85811868E-03  1.39787777E-10
 -1.30589161E-02  1.62460266E-01  1.48728539E-01  1.00775946E-01  1.00183008E-01
 -2.18972018E-09  3.56032510E-03  3.31567539E-02 -1.11779768E-09 -7.12337414E-03
  1.34052148E-02 -4.81752930E-03  8.89894835E-03 -3.49951264E-10 -5.89908938E-10
  5.77104739E-02  1.02239427E-02 -1.80796222E-03  8.85823373E-03 -1.72086890E-10
 -1.75254714E-02  2.44370511E-01  1.46180724E-01 -3.69832086E-02 -6.79679104E-02
  1.72992679E-09  5.45625144E-03 -1.26287073E-02  4.15928722E-10 -3.61008867E-03
  9.52111551E-03 -4.76691521E-03  8.73587824E-03 -2.44857356E-10 -4.71338202E-10
  9.69708565E-02  1.09923359E-02  5.28753569E-03 -1.38204621E-02  4.27175764E-10
  1.00395703E-01  4.18192636E-03 -1.62920005E-02 -1.06410587E-03  2.14796438E-11
 -1.41682737E-02  2.11345845E-01  1.63716167E-01 -6.22679821E-02 -5.45832886E-02
 -2.31117389E-09 -1.07210081E-02 -2.77893311E-02 -6.51614099E-10 -2.05921408E-04
  1.30851200E-04 -3.66085391E-03 -5.39166970E-03 -1.20684857E-10  8.73320576E-11
  1.33653143E-01  2.00643459E-02 -9.22284331E-03  1.43457074E-02  5.81767983E-10
  1.63492620E-01  3.03666747E-02  1.94153914E-02 -1.95386643E-03 -5.50467577E-11
  4.51378045E-03 -1.46254080E-01 -9.35881291E-02 -1.55389944E-01 -9.44445993E-02
 -2.86919549E-09 -5.61936046E-02 -2.91331985E-02 -7.57826501E-10 -1.75394980E-02
  9.57223369E-03  3.30793379E-03  1.21763631E-02 -1.68441958E-10  1.06455354E-10
 -8.43374553E-02 -1.57923953E-02 -7.86087094E-03  6.38684198E-03  8.26279744E-11
  4.51376792E-03 -1.46254167E-01 -9.35872619E-02  1.55391129E-01  9.44425746E-02
 -1.99721415E-09  5.61939861E-02  2.91325948E-02 -7.06173889E-10 -1.75390089E-02
  9.57180932E-03  3.30789428E-03  1.21765049E-02 -4.03764741E-10 -2.19502005E-10
 -8.43377392E-02 -1.57923159E-02  7.86072827E-03 -6.38715610E-03  1.11878498E-10
 -1.41681610E-02  2.11343076E-01  1.63713089E-01  6.22678231E-02  5.45811184E-02
 -1.60822816E-09  1.07214599E-02  2.77893706E-02 -7.95166979E-10 -2.06112979E-04
  1.31140482E-04 -3.66084758E-03 -5.39170370E-03  1.47396532E-10 -1.24946744E-10
  1.33652714E-01  2.00640523E-02  9.22220714E-03 -1.43459838E-02  4.47773487E-10
  1.63489202E-01  3.03660910E-02 -1.94149204E-02  1.95461271E-03 -5.09009582E-11
  5.50650112E-03 -9.65787901E-02 -6.32285411E-02  1.31057522E-03  1.47300843E-01
  3.32837415E-09  5.09100000E-03  6.07451136E-02  1.05647855E-09 -5.14494318E-03
  1.05715614E-02  7.82173296E-04  6.77860703E-03  1.60171275E-10 -1.01341816E-10
 -1.54245979E-01 -3.10038357E-02  8.49004160E-03 -1.33708738E-02 -6.85667369E-10