[Molden Format]
[N_Atoms]
                   33
[Atoms] (AU)
O           1      8           0.64458020     -4.30399543      0.79621925
O           2      8          -2.88321073      7.14100512     -0.63251761
C           3      6           5.16613125     -1.24118595      0.46930094
C           4      6          -4.31577453     -2.72392263      0.50807646
C           5      6           2.50212936     -0.13841379      0.35391870
C           6      6          -2.13282980     -0.85110444      0.35482578
C           7      6           0.38051879     -1.74980459      0.50111898
C           8      6           2.04427587      2.43729330      0.03227856
C           9      6          -2.47671725      1.73120398      0.03141374
C          10      6          -0.41477266      3.38934817     -0.13440139
C          11      6           7.19197271      0.66499539      1.29417981
C          12      6           5.90083237     -2.47762050     -2.07158254
C          13      6          -4.68901619     -4.08302711     -2.04523788
C          14      6          -6.80186036     -1.53184040      1.40914877
C          15      6          -0.82487294      6.12124786     -0.46894544
H          16      1           5.17588131     -2.73061818      1.92996673
H          17      1          -3.76882098     -4.16549305      1.89245936
H          18      1           3.61898989      3.74891751     -0.08562128
H          19      1          -4.35571462      2.53991097     -0.08726906
H          20      1           7.48062563      2.13186579     -0.13644239
H          21      1           9.00336539     -0.29706939      1.55642860
H          22      1           6.68978867      1.58966456      3.07350318
H          23      1           4.52322395     -3.90096929     -2.66724511
H          24      1           7.75472091     -3.38864398     -1.94235251
H          25      1           5.99045335     -1.04439362     -3.56055190
H          26      1          -5.22977465     -2.73346248     -3.51936318
H          27      1          -6.18778543     -5.50358378     -1.89882848
H          28      1          -2.95834309     -5.03779814     -2.64452001
H          29      1          -6.56338876     -0.52175080      3.19817892
H          30      1          -8.22546360     -3.00573804      1.69156178
H          31      1          -7.56867613     -0.20052619      0.02212253
H          32      1           2.40552174     -4.71805589      1.03392120
H          33      1           0.94434089      7.25865077     -0.57012844
[Charge] (Mulliken)
   0.0000000000000000
   0.0000000000000000
   0.0000000000000000
   0.0000000000000000
   0.0000000000000000
   0.0000000000000000
   0.0000000000000000
   0.0000000000000000
   0.0000000000000000
   0.0000000000000000
   0.0000000000000000
   0.0000000000000000
   0.0000000000000000
   0.0000000000000000
   0.0000000000000000
   0.0000000000000000
   0.0000000000000000
   0.0000000000000000
   0.0000000000000000
   0.0000000000000000
   0.0000000000000000
   0.0000000000000000
   0.0000000000000000
   0.0000000000000000
   0.0000000000000000
   0.0000000000000000
   0.0000000000000000
   0.0000000000000000
   0.0000000000000000
   0.0000000000000000
   0.0000000000000000
   0.0000000000000000
   0.0000000000000000
[GTO] (AU)
   1
   s   6
  5.484671700E+03  1.831100000E-03
  8.252349500E+02  1.395010000E-02
  1.880469600E+02  6.844510000E-02
  5.296450000E+01  2.327143000E-01
  1.689757000E+01  4.701930000E-01
  5.799635300E+00  3.585209000E-01
   s   3
  1.553961600E+01 -1.107775000E-01
  3.599933600E+00 -1.480263000E-01
  1.013761800E+00  1.130767000E+00
   p   3
  1.553961600E+01  7.087430000E-02
  3.599933600E+00  3.397528000E-01
  1.013761800E+00  7.271586000E-01
   s   1
  2.700058000E-01  1.000000000E+00
   p   1
  2.700058000E-01  1.000000000E+00
   d   1
  8.000000000E-01  1.000000000E+00
 
   2
   s   6
  5.484671700E+03  1.831100000E-03
  8.252349500E+02  1.395010000E-02
  1.880469600E+02  6.844510000E-02
  5.296450000E+01  2.327143000E-01
  1.689757000E+01  4.701930000E-01
  5.799635300E+00  3.585209000E-01
   s   3
  1.553961600E+01 -1.107775000E-01
  3.599933600E+00 -1.480263000E-01
  1.013761800E+00  1.130767000E+00
   p   3
  1.553961600E+01  7.087430000E-02
  3.599933600E+00  3.397528000E-01
  1.013761800E+00  7.271586000E-01
   s   1
  2.700058000E-01  1.000000000E+00
   p   1
  2.700058000E-01  1.000000000E+00
   d   1
  8.000000000E-01  1.000000000E+00
 
   3
   s   6
  3.047524900E+03  1.834700000E-03
  4.573695100E+02  1.403730000E-02
  1.039486900E+02  6.884260000E-02
  2.921015500E+01  2.321844000E-01
  9.286663000E+00  4.679413000E-01
  3.163927000E+00  3.623120000E-01
   s   3
  7.868272400E+00 -1.193324000E-01
  1.881288500E+00 -1.608542000E-01
  5.442493000E-01  1.143456400E+00
   p   3
  7.868272400E+00  6.899910000E-02
  1.881288500E+00  3.164240000E-01
  5.442493000E-01  7.443083000E-01
   s   1
  1.687144000E-01  1.000000000E+00
   p   1
  1.687144000E-01  1.000000000E+00
   d   1
  8.000000000E-01  1.000000000E+00
 
   4
   s   6
  3.047524900E+03  1.834700000E-03
  4.573695100E+02  1.403730000E-02
  1.039486900E+02  6.884260000E-02
  2.921015500E+01  2.321844000E-01
  9.286663000E+00  4.679413000E-01
  3.163927000E+00  3.623120000E-01
   s   3
  7.868272400E+00 -1.193324000E-01
  1.881288500E+00 -1.608542000E-01
  5.442493000E-01  1.143456400E+00
   p   3
  7.868272400E+00  6.899910000E-02
  1.881288500E+00  3.164240000E-01
  5.442493000E-01  7.443083000E-01
   s   1
  1.687144000E-01  1.000000000E+00
   p   1
  1.687144000E-01  1.000000000E+00
   d   1
  8.000000000E-01  1.000000000E+00
 
   5
   s   6
  3.047524900E+03  1.834700000E-03
  4.573695100E+02  1.403730000E-02
  1.039486900E+02  6.884260000E-02
  2.921015500E+01  2.321844000E-01
  9.286663000E+00  4.679413000E-01
  3.163927000E+00  3.623120000E-01
   s   3
  7.868272400E+00 -1.193324000E-01
  1.881288500E+00 -1.608542000E-01
  5.442493000E-01  1.143456400E+00
   p   3
  7.868272400E+00  6.899910000E-02
  1.881288500E+00  3.164240000E-01
  5.442493000E-01  7.443083000E-01
   s   1
  1.687144000E-01  1.000000000E+00
   p   1
  1.687144000E-01  1.000000000E+00
   d   1
  8.000000000E-01  1.000000000E+00
 
   6
   s   6
  3.047524900E+03  1.834700000E-03
  4.573695100E+02  1.403730000E-02
  1.039486900E+02  6.884260000E-02
  2.921015500E+01  2.321844000E-01
  9.286663000E+00  4.679413000E-01
  3.163927000E+00  3.623120000E-01
   s   3
  7.868272400E+00 -1.193324000E-01
  1.881288500E+00 -1.608542000E-01
  5.442493000E-01  1.143456400E+00
   p   3
  7.868272400E+00  6.899910000E-02
  1.881288500E+00  3.164240000E-01
  5.442493000E-01  7.443083000E-01
   s   1
  1.687144000E-01  1.000000000E+00
   p   1
  1.687144000E-01  1.000000000E+00
   d   1
  8.000000000E-01  1.000000000E+00
 
   7
   s   6
  3.047524900E+03  1.834700000E-03
  4.573695100E+02  1.403730000E-02
  1.039486900E+02  6.884260000E-02
  2.921015500E+01  2.321844000E-01
  9.286663000E+00  4.679413000E-01
  3.163927000E+00  3.623120000E-01
   s   3
  7.868272400E+00 -1.193324000E-01
  1.881288500E+00 -1.608542000E-01
  5.442493000E-01  1.143456400E+00
   p   3
  7.868272400E+00  6.899910000E-02
  1.881288500E+00  3.164240000E-01
  5.442493000E-01  7.443083000E-01
   s   1
  1.687144000E-01  1.000000000E+00
   p   1
  1.687144000E-01  1.000000000E+00
   d   1
  8.000000000E-01  1.000000000E+00
 
   8
   s   6
  3.047524900E+03  1.834700000E-03
  4.573695100E+02  1.403730000E-02
  1.039486900E+02  6.884260000E-02
  2.921015500E+01  2.321844000E-01
  9.286663000E+00  4.679413000E-01
  3.163927000E+00  3.623120000E-01
   s   3
  7.868272400E+00 -1.193324000E-01
  1.881288500E+00 -1.608542000E-01
  5.442493000E-01  1.143456400E+00
   p   3
  7.868272400E+00  6.899910000E-02
  1.881288500E+00  3.164240000E-01
  5.442493000E-01  7.443083000E-01
   s   1
  1.687144000E-01  1.000000000E+00
   p   1
  1.687144000E-01  1.000000000E+00
   d   1
  8.000000000E-01  1.000000000E+00
 
   9
   s   6
  3.047524900E+03  1.834700000E-03
  4.573695100E+02  1.403730000E-02
  1.039486900E+02  6.884260000E-02
  2.921015500E+01  2.321844000E-01
  9.286663000E+00  4.679413000E-01
  3.163927000E+00  3.623120000E-01
   s   3
  7.868272400E+00 -1.193324000E-01
  1.881288500E+00 -1.608542000E-01
  5.442493000E-01  1.143456400E+00
   p   3
  7.868272400E+00  6.899910000E-02
  1.881288500E+00  3.164240000E-01
  5.442493000E-01  7.443083000E-01
   s   1
  1.687144000E-01  1.000000000E+00
   p   1
  1.687144000E-01  1.000000000E+00
   d   1
  8.000000000E-01  1.000000000E+00
 
  10
   s   6
  3.047524900E+03  1.834700000E-03
  4.573695100E+02  1.403730000E-02
  1.039486900E+02  6.884260000E-02
  2.921015500E+01  2.321844000E-01
  9.286663000E+00  4.679413000E-01
  3.163927000E+00  3.623120000E-01
   s   3
  7.868272400E+00 -1.193324000E-01
  1.881288500E+00 -1.608542000E-01
  5.442493000E-01  1.143456400E+00
   p   3
  7.868272400E+00  6.899910000E-02
  1.881288500E+00  3.164240000E-01
  5.442493000E-01  7.443083000E-01
   s   1
  1.687144000E-01  1.000000000E+00
   p   1
  1.687144000E-01  1.000000000E+00
   d   1
  8.000000000E-01  1.000000000E+00
 
  11
   s   6
  3.047524900E+03  1.834700000E-03
  4.573695100E+02  1.403730000E-02
  1.039486900E+02  6.884260000E-02
  2.921015500E+01  2.321844000E-01
  9.286663000E+00  4.679413000E-01
  3.163927000E+00  3.623120000E-01
   s   3
  7.868272400E+00 -1.193324000E-01
  1.881288500E+00 -1.608542000E-01
  5.442493000E-01  1.143456400E+00
   p   3
  7.868272400E+00  6.899910000E-02
  1.881288500E+00  3.164240000E-01
  5.442493000E-01  7.443083000E-01
   s   1
  1.687144000E-01  1.000000000E+00
   p   1
  1.687144000E-01  1.000000000E+00
   d   1
  8.000000000E-01  1.000000000E+00
 
  12
   s   6
  3.047524900E+03  1.834700000E-03
  4.573695100E+02  1.403730000E-02
  1.039486900E+02  6.884260000E-02
  2.921015500E+01  2.321844000E-01
  9.286663000E+00  4.679413000E-01
  3.163927000E+00  3.623120000E-01
   s   3
  7.868272400E+00 -1.193324000E-01
  1.881288500E+00 -1.608542000E-01
  5.442493000E-01  1.143456400E+00
   p   3
  7.868272400E+00  6.899910000E-02
  1.881288500E+00  3.164240000E-01
  5.442493000E-01  7.443083000E-01
   s   1
  1.687144000E-01  1.000000000E+00
   p   1
  1.687144000E-01  1.000000000E+00
   d   1
  8.000000000E-01  1.000000000E+00
 
  13
   s   6
  3.047524900E+03  1.834700000E-03
  4.573695100E+02  1.403730000E-02
  1.039486900E+02  6.884260000E-02
  2.921015500E+01  2.321844000E-01
  9.286663000E+00  4.679413000E-01
  3.163927000E+00  3.623120000E-01
   s   3
  7.868272400E+00 -1.193324000E-01
  1.881288500E+00 -1.608542000E-01
  5.442493000E-01  1.143456400E+00
   p   3
  7.868272400E+00  6.899910000E-02
  1.881288500E+00  3.164240000E-01
  5.442493000E-01  7.443083000E-01
   s   1
  1.687144000E-01  1.000000000E+00
   p   1
  1.687144000E-01  1.000000000E+00
   d   1
  8.000000000E-01  1.000000000E+00
 
  14
   s   6
  3.047524900E+03  1.834700000E-03
  4.573695100E+02  1.403730000E-02
  1.039486900E+02  6.884260000E-02
  2.921015500E+01  2.321844000E-01
  9.286663000E+00  4.679413000E-01
  3.163927000E+00  3.623120000E-01
   s   3
  7.868272400E+00 -1.193324000E-01
  1.881288500E+00 -1.608542000E-01
  5.442493000E-01  1.143456400E+00
   p   3
  7.868272400E+00  6.899910000E-02
  1.881288500E+00  3.164240000E-01
  5.442493000E-01  7.443083000E-01
   s   1
  1.687144000E-01  1.000000000E+00
   p   1
  1.687144000E-01  1.000000000E+00
   d   1
  8.000000000E-01  1.000000000E+00
 
  15
   s   6
  3.047524900E+03  1.834700000E-03
  4.573695100E+02  1.403730000E-02
  1.039486900E+02  6.884260000E-02
  2.921015500E+01  2.321844000E-01
  9.286663000E+00  4.679413000E-01
  3.163927000E+00  3.623120000E-01
   s   3
  7.868272400E+00 -1.193324000E-01
  1.881288500E+00 -1.608542000E-01
  5.442493000E-01  1.143456400E+00
   p   3
  7.868272400E+00  6.899910000E-02
  1.881288500E+00  3.164240000E-01
  5.442493000E-01  7.443083000E-01
   s   1
  1.687144000E-01  1.000000000E+00
   p   1
  1.687144000E-01  1.000000000E+00
   d   1
  8.000000000E-01  1.000000000E+00
 
  16
   s   3
  1.873113700E+01  3.349460000E-02
  2.825393700E+00  2.347269500E-01
  6.401217000E-01  8.137573300E-01
   s   1
  1.612778000E-01  1.000000000E+00
 
  17
   s   3
  1.873113700E+01  3.349460000E-02
  2.825393700E+00  2.347269500E-01
  6.401217000E-01  8.137573300E-01
   s   1
  1.612778000E-01  1.000000000E+00
 
  18
   s   3
  1.873113700E+01  3.349460000E-02
  2.825393700E+00  2.347269500E-01
  6.401217000E-01  8.137573300E-01
   s   1
  1.612778000E-01  1.000000000E+00
 
  19
   s   3
  1.873113700E+01  3.349460000E-02
  2.825393700E+00  2.347269500E-01
  6.401217000E-01  8.137573300E-01
   s   1
  1.612778000E-01  1.000000000E+00
 
  20
   s   3
  1.873113700E+01  3.349460000E-02
  2.825393700E+00  2.347269500E-01
  6.401217000E-01  8.137573300E-01
   s   1
  1.612778000E-01  1.000000000E+00
 
  21
   s   3
  1.873113700E+01  3.349460000E-02
  2.825393700E+00  2.347269500E-01
  6.401217000E-01  8.137573300E-01
   s   1
  1.612778000E-01  1.000000000E+00
 
  22
   s   3
  1.873113700E+01  3.349460000E-02
  2.825393700E+00  2.347269500E-01
  6.401217000E-01  8.137573300E-01
   s   1
  1.612778000E-01  1.000000000E+00
 
  23
   s   3
  1.873113700E+01  3.349460000E-02
  2.825393700E+00  2.347269500E-01
  6.401217000E-01  8.137573300E-01
   s   1
  1.612778000E-01  1.000000000E+00
 
  24
   s   3
  1.873113700E+01  3.349460000E-02
  2.825393700E+00  2.347269500E-01
  6.401217000E-01  8.137573300E-01
   s   1
  1.612778000E-01  1.000000000E+00
 
  25
   s   3
  1.873113700E+01  3.349460000E-02
  2.825393700E+00  2.347269500E-01
  6.401217000E-01  8.137573300E-01
   s   1
  1.612778000E-01  1.000000000E+00
 
  26
   s   3
  1.873113700E+01  3.349460000E-02
  2.825393700E+00  2.347269500E-01
  6.401217000E-01  8.137573300E-01
   s   1
  1.612778000E-01  1.000000000E+00
 
  27
   s   3
  1.873113700E+01  3.349460000E-02
  2.825393700E+00  2.347269500E-01
  6.401217000E-01  8.137573300E-01
   s   1
  1.612778000E-01  1.000000000E+00
 
  28
   s   3
  1.873113700E+01  3.349460000E-02
  2.825393700E+00  2.347269500E-01
  6.401217000E-01  8.137573300E-01
   s   1
  1.612778000E-01  1.000000000E+00
 
  29
   s   3
  1.873113700E+01  3.349460000E-02
  2.825393700E+00  2.347269500E-01
  6.401217000E-01  8.137573300E-01
   s   1
  1.612778000E-01  1.000000000E+00
 
  30
   s   3
  1.873113700E+01  3.349460000E-02
  2.825393700E+00  2.347269500E-01
  6.401217000E-01  8.137573300E-01
   s   1
  1.612778000E-01  1.000000000E+00
 
  31
   s   3
  1.873113700E+01  3.349460000E-02
  2.825393700E+00  2.347269500E-01
  6.401217000E-01  8.137573300E-01
   s   1
  1.612778000E-01  1.000000000E+00
 
  32
   s   3
  1.873113700E+01  3.349460000E-02
  2.825393700E+00  2.347269500E-01
  6.401217000E-01  8.137573300E-01
   s   1
  1.612778000E-01  1.000000000E+00
 
  33
   s   3
  1.873113700E+01  3.349460000E-02
  2.825393700E+00  2.347269500E-01
  6.401217000E-01  8.137573300E-01
   s   1
  1.612778000E-01  1.000000000E+00
 
[MO]
Sym=     1a
Ene=     0.0000
Spin= Alpha
Occup=    0.00000
   1         0.99389601
   2         0.02268166
   3         0.00129171
   4         0.00247678
   5        -0.00014192
   6         0.00576776
   7        -0.00055830
   8         0.00071038
   9        -0.00007533
  10        -0.00415501
  11        -0.00408993
  12        -0.00402575
  13         0.00006150
  14        -0.00002494
  15         0.00000285
  16         0.00059130
  17         0.00037143
  18         0.00032574
  19        -0.00001979
  20         0.00000583
  21         0.00038157
  22         0.00018023
  23        -0.00001498
  24        -0.00000969
  25         0.00001496
  26        -0.00001341
  27        -0.00001568
  28        -0.00001341
  29         0.00000274
  30         0.00000125
  31        -0.00003072
  32         0.00029350
  33         0.00004486
  34        -0.00013450
  35        -0.00074584
  36         0.00010137
  37        -0.00015136
  38        -0.00023314
  39        -0.00040648
  40         0.00000318
  41        -0.00001953
  42         0.00003089
  43        -0.00002234
  44        -0.00002773
  45         0.00005094
  46        -0.00010027
  47         0.00020359
  48         0.00029532
  49        -0.00022907
  50        -0.00024504
  51         0.00021737
  52        -0.00071059
  53         0.00005790
  54         0.00017636
  55        -0.00001006
  56         0.00001354
  57         0.00000956
  58        -0.00002530
  59        -0.00002997
  60        -0.00002566
  61         0.00000620
  62         0.00029189
  63         0.00012929
  64         0.00024363
  65         0.00026786
  66        -0.00110405
  67         0.00054800
  68         0.00071566
  69         0.00026405
  70        -0.00001004
  71        -0.00004054
  72        -0.00002507
  73        -0.00002177
  74        -0.00000182
  75         0.00004980
  76         0.00004205
  77         0.00011849
  78        -0.00004103
  79        -0.00027770
  80        -0.00122031
  81         0.00127267
  82         0.00062947
  83        -0.00112424
  84        -0.00089458
  85         0.00000735
  86        -0.00004175
  87        -0.00003284
  88         0.00002196
  89        -0.00001634
  90        -0.00004235
  91        -0.00013813
  92         0.00126996
  93         0.00011635
  94        -0.00156017
  95        -0.00031561
  96        -0.00013441
  97         0.00169434
  98         0.00036638
  99        -0.00028698
 100        -0.00010154
 101         0.00010644
 102        -0.00014144
 103        -0.00002293
 104         0.00007056
 105        -0.00005148
 106        -0.00000293
 107         0.00016650
 108         0.00027806
 109        -0.00011770
 110         0.00058763
 111         0.00043196
 112        -0.00027029
 113         0.00006514
 114         0.00056520
 115        -0.00000968
 116         0.00003100
 117        -0.00000994
 118        -0.00001487
 119         0.00000767
 120        -0.00002353
 121         0.00005231
 122        -0.00031432
 123        -0.00002409
 124        -0.00038906
 125        -0.00099776
 126         0.00003273
 127        -0.00019203
 128        -0.00062133
 129        -0.00073202
 130        -0.00003313
 131         0.00003367
 132         0.00000447
 133         0.00000510
 134        -0.00002095
 135         0.00005350
 136        -0.00000223
 137        -0.00033193
 138         0.00010373
 139         0.00013080
 140        -0.00013916
 141        -0.00026078
 142        -0.00042553
 143         0.00012424
 144        -0.00009574
 145        -0.00003102
 146         0.00001403
 147         0.00001205
 148        -0.00000231
 149         0.00006171
 150         0.00002359
 151         0.00001930
 152         0.00004060
 153         0.00015580
 154         0.00007605
 155         0.00001950
 156         0.00017069
 157         0.00004980
 158         0.00001616
 159        -0.00003128
 160        -0.00000236
 161         0.00000206
 162         0.00000828
 163        -0.00000996
 164         0.00000706
 165         0.00001561
 166        -0.00010187
 167         0.00023217
 168        -0.00028974
 169         0.00029733
 170         0.00065948
 171         0.00034885
 172        -0.00008833
 173         0.00012796
 174         0.00035377
 175        -0.00001726
 176        -0.00000794
 177         0.00002687
 178        -0.00000285
 179        -0.00001418
 180         0.00003962
 181        -0.00004294
 182         0.00007916
 183         0.00009581
 184         0.00014017
 185         0.00011249
 186         0.00025676
 187         0.00025016
 188        -0.00005846
 189        -0.00004562
 190         0.00000236
 191        -0.00000584
 192         0.00000475
 193         0.00001243
 194         0.00004015
 195        -0.00000342
 196         0.00004652
 197        -0.00000751
 198        -0.00022797
 199         0.00003241
 200        -0.00004716
 201        -0.00061358
 202        -0.00028989
 203         0.00013994
 204         0.00011837
 205        -0.00001431
 206         0.00000137
 207         0.00000695
 208         0.00001625
 209         0.00001013
 210        -0.00002050
 211        -0.00001701
 212         0.00022859
 213        -0.00021283
 214         0.00019061
 215        -0.00003099
 216         0.00000870
 217         0.00013192
 218         0.00005494
 219         0.00002846
 220         0.00002284
 221        -0.00002227
 222        -0.00001941
 223        -0.00003298
 224         0.00001035
 225         0.00000335
 226        -0.00022549
 227        -0.00021027
 228         0.00025230
 229        -0.00002285
 230         0.00012405
 231         0.00009090
 232        -0.00017855
 233        -0.00011375
 234         0.00002298
 235        -0.00007822
 236         0.00008629
 237         0.00007351
 238         0.00006127
 239         0.00014054
 240        -0.00002839
 241        -0.00009494
 242        -0.00014564
 243        -0.00022137
 244        -0.00011107
 245        -0.00019221
 246         0.00002990
 247         0.00009804
 248        -0.00004200
 249         0.00002186
 250         0.00004926
 251        -0.00036825
 252        -0.00005043
 253        -0.00010017
 254         0.00006173
 255         0.00004383
 256         0.00008495
 257         0.00014021
 258         0.00071260
 259        -0.00042717
 260         0.00001840
 261        -0.00008181
Sym=     2a
Ene=     0.0000
Spin= Alpha
Occup=    0.00000
   1         0.00060302
   2         0.00017592
   3        -0.00009171
   4         0.00009702
   5         0.00028395
   6         0.00020581
   7        -0.00010284
   8         0.00007706
   9         0.00021539
  10        -0.00000678
  11         0.00000391
  12         0.00000044
  13        -0.00000448
  14         0.00001404
  15         0.00001015
  16         0.99946085
  17         0.00956883
  18         0.00433384
  19        -0.00346804
  20         0.00059164
  21        -0.00764055
  22         0.00205180
  23        -0.00196645
  24         0.00040724
  25        -0.00369537
  26        -0.00393577
  27        -0.00431574
  28        -0.00023791
  29         0.00004253
  30        -0.00005383
  31        -0.00000821
  32         0.00007077
  33        -0.00010854
  34         0.00010821
  35         0.00002635
  36        -0.00007783
  37        -0.00004984
  38         0.00004222
  39         0.00007386
  40         0.00000931
  41         0.00000181
  42        -0.00000010
  43         0.00000151
  44        -0.00002571
  45         0.00001272
  46        -0.00006429
  47        -0.00005932
  48         0.00008599
  49        -0.00035785
  50         0.00002193
  51         0.00015601
  52        -0.00003658
  53        -0.00008262
  54         0.00006433
  55        -0.00002564
  56         0.00000909
  57         0.00001763
  58        -0.00001284
  59        -0.00001447
  60        -0.00004631
  61        -0.00000970
  62         0.00012085
  63         0.00007771
  64         0.00013639
  65         0.00064480
  66        -0.00010321
  67         0.00026190
  68         0.00018562
  69         0.00062997
  70         0.00000197
  71         0.00000845
  72         0.00000212
  73        -0.00002290
  74        -0.00000231
  75         0.00000264
  76         0.00000105
  77        -0.00020713
  78         0.00004008
  79        -0.00002709
  80        -0.00124975
  81        -0.00018477
  82         0.00052131
  83        -0.00033097
  84        -0.00090448
  85        -0.00000909
  86        -0.00001414
  87         0.00003132
  88        -0.00000720
  89        -0.00000319
  90        -0.00009132
  91        -0.00000005
  92        -0.00008602
  93         0.00005212
  94        -0.00013296
  95         0.00003452
  96        -0.00028610
  97         0.00036168
  98         0.00004198
  99         0.00008940
 100        -0.00002419
 101         0.00001741
 102         0.00000600
 103         0.00001860
 104         0.00007877
 105        -0.00001708
 106         0.00005975
 107         0.00021106
 108        -0.00049736
 109        -0.00006102
 110         0.00002007
 111         0.00045771
 112        -0.00043678
 113         0.00015047
 114         0.00012273
 115         0.00003117
 116        -0.00002764
 117         0.00000761
 118        -0.00002833
 119         0.00006802
 120        -0.00005088
 121         0.00000088
 122         0.00001565
 123        -0.00008851
 124        -0.00027488
 125        -0.00175270
 126        -0.00018308
 127        -0.00078901
 128        -0.00059873
 129        -0.00129634
 130        -0.00002536
 131        -0.00000706
 132        -0.00000967
 133        -0.00003631
 134        -0.00006078
 135         0.00003031
 136        -0.00005515
 137         0.00026445
 138         0.00041800
 139        -0.00022286
 140        -0.00124338
 141        -0.00021327
 142        -0.00050928
 143        -0.00098924
 144        -0.00088084
 145        -0.00001018
 146         0.00003102
 147        -0.00004230
 148         0.00008089
 149         0.00004830
 150         0.00004152
 151         0.00000604
 152         0.00007411
 153        -0.00001628
 154         0.00012844
 155        -0.00012903
 156         0.00002492
 157        -0.00000535
 158         0.00009537
 159        -0.00012595
 160         0.00000021
 161         0.00000205
 162         0.00000706
 163         0.00000657
 164        -0.00000256
 165        -0.00000913
 166        -0.00000461
 167         0.00003505
 168        -0.00008592
 169         0.00009602
 170        -0.00006576
 171         0.00024392
 172        -0.00002143
 173         0.00006596
 174        -0.00000478
 175        -0.00001107
 176         0.00000650
 177         0.00000620
 178         0.00001045
 179        -0.00000175
 180        -0.00000461
 181        -0.00001828
 182        -0.00004964
 183        -0.00001897
 184        -0.00003721
 185         0.00003685
 186        -0.00019141
 187         0.00001116
 188        -0.00003259
 189         0.00001230
 190        -0.00000368
 191        -0.00000152
 192         0.00000082
 193         0.00001316
 194         0.00000626
 195        -0.00000204
 196         0.00002668
 197        -0.00018391
 198        -0.00004209
 199         0.00002456
 200         0.00016764
 201        -0.00032077
 202        -0.00000891
 203         0.00002994
 204         0.00019256
 205        -0.00001285
 206         0.00000361
 207         0.00000930
 208        -0.00000219
 209         0.00000190
 210         0.00000644
 211         0.00041701
 212         0.00057266
 213         0.00131824
 214        -0.00034069
 215        -0.00020782
 216         0.00130134
 217         0.00061667
 218        -0.00040991
 219        -0.00003096
 220        -0.00082438
 221        -0.00013067
 222         0.00005034
 223         0.00068966
 224        -0.00011095
 225         0.00009382
 226        -0.00005015
 227        -0.00010435
 228         0.00023102
 229         0.00027532
 230        -0.00017270
 231        -0.00019634
 232         0.00010415
 233        -0.00039141
 234         0.00013164
 235         0.00006899
 236        -0.00002580
 237        -0.00000416
 238        -0.00000858
 239         0.00003506
 240         0.00002743
 241        -0.00001507
 242        -0.00008100
 243        -0.00013992
 244         0.00008652
 245         0.00000939
 246        -0.00003507
 247         0.00008378
 248         0.00002268
 249         0.00007811
 250        -0.00004772
 251        -0.00004361
 252         0.00002675
 253        -0.00001341
 254        -0.00006774
 255        -0.00004641
 256        -0.00010986
 257         0.00010850
 258        -0.00000556
 259        -0.00001771
 260         0.00059964
 261         0.00027611
Sym=     3a
Ene=     0.0000
Spin= Alpha
Occup=    0.00000
   1         0.00000328
   2         0.00004495
   3         0.00003554
   4         0.00004440
   5         0.00004945
   6        -0.00054873
   7         0.00010149
   8        -0.00008776
   9         0.00005803
  10         0.00003834
  11         0.00003532
  12         0.00000093
  13         0.00000443
  14         0.00000428
  15        -0.00000419
  16        -0.00005113
  17         0.00040986
  18        -0.00473741
  19         0.00467400
  20        -0.00066504
  21        -0.00285255
  22        -0.00412233
  23         0.00422382
  24        -0.00061025
  25        -0.00036633
  26         0.00027807
  27         0.00061520
  28         0.00047843
  29        -0.00008080
  30         0.00005689
  31        -0.00025914
  32        -0.00026187
  33         0.00000613
  34         0.00051159
  35         0.00041274
  36         0.00079880
  37        -0.00065698
  38         0.00005200
  39         0.00023729
  40         0.00004448
  41        -0.00002205
  42        -0.00003545
  43         0.00002827
  44         0.00000880
  45        -0.00000972
  46        -0.00044012
  47        -0.00013163
  48        -0.00016646
  49         0.00007500
  50        -0.00001345
  51         0.00008161
  52         0.00004772
  53        -0.00001121
  54        -0.00013058
  55         0.00000392
  56        -0.00002768
  57        -0.00001030
  58        -0.00000536
  59         0.00000034
  60         0.00001284
  61         0.00324137
  62        -0.00012280
  63         0.00008896
  64         0.00002614
  65         0.00000149
  66         0.00386056
  67        -0.00223634
  68         0.00227736
  69        -0.00039549
  70        -0.00001812
  71         0.00008694
  72        -0.00008184
  73        -0.00002777
  74         0.00001684
  75        -0.00002948
  76         0.00138755
  77        -0.00012344
  78         0.00015678
  79         0.00007027
  80         0.00013121
  81         0.00246929
  82         0.00031056
  83         0.00133294
  84        -0.00007507
  85        -0.00000107
  86         0.00001779
  87        -0.00003558
  88         0.00000896
  89        -0.00000229
  90         0.00000222
  91        -0.00373274
  92         0.00003794
  93        -0.00003836
  94         0.00000995