[Molden Format]
[N_Atoms]
                   18
[Atoms] (AU)
C           1      6          -6.81671612     -1.33895425      0.00058772
C           2      6          -4.57079277     -2.65014774      0.00053281
C           3      6          -2.21862419     -1.35454766      0.00057261
C           4      6           0.13297335     -2.64960193      0.00051789
C           5      6           2.38033426     -1.33884702      0.00055855
C           6      6           2.38033173      1.33885151      0.00065628
C           7      6           0.13296835      2.64960218      0.00071121
C           8      6          -2.21862675      1.35454347      0.00067139
C           9      6          -4.57079778      2.65013911      0.00072604
C          10      6          -6.81671865      1.33894138      0.00068540
H          11      1          -8.60188269     -2.35360939      0.00055649
H          12      1          -4.56483628     -4.70542965      0.00045783
H          13      1           0.12767585     -4.70492158      0.00044288
H          14      1           4.16471608     -2.35444686      0.00051589
H          15      1           4.16471163      2.35445472      0.00068753
H          16      1           0.12766697      4.70492182      0.00078612
H          17      1          -4.56484516      4.70542103      0.00080100
H          18      1          -8.60188713      2.35359315      0.00072798
[Charge] (Mulliken)
   0.0000000000000000
   0.0000000000000000
   0.0000000000000000
   0.0000000000000000
   0.0000000000000000
   0.0000000000000000
   0.0000000000000000
   0.0000000000000000
   0.0000000000000000
   0.0000000000000000
   0.0000000000000000
   0.0000000000000000
   0.0000000000000000
   0.0000000000000000
   0.0000000000000000
   0.0000000000000000
   0.0000000000000000
   0.0000000000000000
[GTO] (AU)
   1
   s   6
  3.047524900E+03  1.834700000E-03
  4.573695100E+02  1.403730000E-02
  1.039486900E+02  6.884260000E-02
  2.921015500E+01  2.321844000E-01
  9.286663000E+00  4.679413000E-01
  3.163927000E+00  3.623120000E-01
   s   3
  7.868272400E+00 -1.193324000E-01
  1.881288500E+00 -1.608542000E-01
  5.442493000E-01  1.143456400E+00
   p   3
  7.868272400E+00  6.899910000E-02
  1.881288500E+00  3.164240000E-01
  5.442493000E-01  7.443083000E-01
   s   1
  1.687144000E-01  1.000000000E+00
   p   1
  1.687144000E-01  1.000000000E+00
   d   1
  8.000000000E-01  1.000000000E+00
 
   2
   s   6
  3.047524900E+03  1.834700000E-03
  4.573695100E+02  1.403730000E-02
  1.039486900E+02  6.884260000E-02
  2.921015500E+01  2.321844000E-01
  9.286663000E+00  4.679413000E-01
  3.163927000E+00  3.623120000E-01
   s   3
  7.868272400E+00 -1.193324000E-01
  1.881288500E+00 -1.608542000E-01
  5.442493000E-01  1.143456400E+00
   p   3
  7.868272400E+00  6.899910000E-02
  1.881288500E+00  3.164240000E-01
  5.442493000E-01  7.443083000E-01
   s   1
  1.687144000E-01  1.000000000E+00
   p   1
  1.687144000E-01  1.000000000E+00
   d   1
  8.000000000E-01  1.000000000E+00
 
   3
   s   6
  3.047524900E+03  1.834700000E-03
  4.573695100E+02  1.403730000E-02
  1.039486900E+02  6.884260000E-02
  2.921015500E+01  2.321844000E-01
  9.286663000E+00  4.679413000E-01
  3.163927000E+00  3.623120000E-01
   s   3
  7.868272400E+00 -1.193324000E-01
  1.881288500E+00 -1.608542000E-01
  5.442493000E-01  1.143456400E+00
   p   3
  7.868272400E+00  6.899910000E-02
  1.881288500E+00  3.164240000E-01
  5.442493000E-01  7.443083000E-01
   s   1
  1.687144000E-01  1.000000000E+00
   p   1
  1.687144000E-01  1.000000000E+00
   d   1
  8.000000000E-01  1.000000000E+00
 
   4
   s   6
  3.047524900E+03  1.834700000E-03
  4.573695100E+02  1.403730000E-02
  1.039486900E+02  6.884260000E-02
  2.921015500E+01  2.321844000E-01
  9.286663000E+00  4.679413000E-01
  3.163927000E+00  3.623120000E-01
   s   3
  7.868272400E+00 -1.193324000E-01
  1.881288500E+00 -1.608542000E-01
  5.442493000E-01  1.143456400E+00
   p   3
  7.868272400E+00  6.899910000E-02
  1.881288500E+00  3.164240000E-01
  5.442493000E-01  7.443083000E-01
   s   1
  1.687144000E-01  1.000000000E+00
   p   1
  1.687144000E-01  1.000000000E+00
   d   1
  8.000000000E-01  1.000000000E+00
 
   5
   s   6
  3.047524900E+03  1.834700000E-03
  4.573695100E+02  1.403730000E-02
  1.039486900E+02  6.884260000E-02
  2.921015500E+01  2.321844000E-01
  9.286663000E+00  4.679413000E-01
  3.163927000E+00  3.623120000E-01
   s   3
  7.868272400E+00 -1.193324000E-01
  1.881288500E+00 -1.608542000E-01
  5.442493000E-01  1.143456400E+00
   p   3
  7.868272400E+00  6.899910000E-02
  1.881288500E+00  3.164240000E-01
  5.442493000E-01  7.443083000E-01
   s   1
  1.687144000E-01  1.000000000E+00
   p   1
  1.687144000E-01  1.000000000E+00
   d   1
  8.000000000E-01  1.000000000E+00
 
   6
   s   6
  3.047524900E+03  1.834700000E-03
  4.573695100E+02  1.403730000E-02
  1.039486900E+02  6.884260000E-02
  2.921015500E+01  2.321844000E-01
  9.286663000E+00  4.679413000E-01
  3.163927000E+00  3.623120000E-01
   s   3
  7.868272400E+00 -1.193324000E-01
  1.881288500E+00 -1.608542000E-01
  5.442493000E-01  1.143456400E+00
   p   3
  7.868272400E+00  6.899910000E-02
  1.881288500E+00  3.164240000E-01
  5.442493000E-01  7.443083000E-01
   s   1
  1.687144000E-01  1.000000000E+00
   p   1
  1.687144000E-01  1.000000000E+00
   d   1
  8.000000000E-01  1.000000000E+00
 
   7
   s   6
  3.047524900E+03  1.834700000E-03
  4.573695100E+02  1.403730000E-02
  1.039486900E+02  6.884260000E-02
  2.921015500E+01  2.321844000E-01
  9.286663000E+00  4.679413000E-01
  3.163927000E+00  3.623120000E-01
   s   3
  7.868272400E+00 -1.193324000E-01
  1.881288500E+00 -1.608542000E-01
  5.442493000E-01  1.143456400E+00
   p   3
  7.868272400E+00  6.899910000E-02
  1.881288500E+00  3.164240000E-01
  5.442493000E-01  7.443083000E-01
   s   1
  1.687144000E-01  1.000000000E+00
   p   1
  1.687144000E-01  1.000000000E+00
   d   1
  8.000000000E-01  1.000000000E+00
 
   8
   s   6
  3.047524900E+03  1.834700000E-03
  4.573695100E+02  1.403730000E-02
  1.039486900E+02  6.884260000E-02
  2.921015500E+01  2.321844000E-01
  9.286663000E+00  4.679413000E-01
  3.163927000E+00  3.623120000E-01
   s   3
  7.868272400E+00 -1.193324000E-01
  1.881288500E+00 -1.608542000E-01
  5.442493000E-01  1.143456400E+00
   p   3
  7.868272400E+00  6.899910000E-02
  1.881288500E+00  3.164240000E-01
  5.442493000E-01  7.443083000E-01
   s   1
  1.687144000E-01  1.000000000E+00
   p   1
  1.687144000E-01  1.000000000E+00
   d   1
  8.000000000E-01  1.000000000E+00
 
   9
   s   6
  3.047524900E+03  1.834700000E-03
  4.573695100E+02  1.403730000E-02
  1.039486900E+02  6.884260000E-02
  2.921015500E+01  2.321844000E-01
  9.286663000E+00  4.679413000E-01
  3.163927000E+00  3.623120000E-01
   s   3
  7.868272400E+00 -1.193324000E-01
  1.881288500E+00 -1.608542000E-01
  5.442493000E-01  1.143456400E+00
   p   3
  7.868272400E+00  6.899910000E-02
  1.881288500E+00  3.164240000E-01
  5.442493000E-01  7.443083000E-01
   s   1
  1.687144000E-01  1.000000000E+00
   p   1
  1.687144000E-01  1.000000000E+00
   d   1
  8.000000000E-01  1.000000000E+00
 
  10
   s   6
  3.047524900E+03  1.834700000E-03
  4.573695100E+02  1.403730000E-02
  1.039486900E+02  6.884260000E-02
  2.921015500E+01  2.321844000E-01
  9.286663000E+00  4.679413000E-01
  3.163927000E+00  3.623120000E-01
   s   3
  7.868272400E+00 -1.193324000E-01
  1.881288500E+00 -1.608542000E-01
  5.442493000E-01  1.143456400E+00
   p   3
  7.868272400E+00  6.899910000E-02
  1.881288500E+00  3.164240000E-01
  5.442493000E-01  7.443083000E-01
   s   1
  1.687144000E-01  1.000000000E+00
   p   1
  1.687144000E-01  1.000000000E+00
   d   1
  8.000000000E-01  1.000000000E+00
 
  11
   s   3
  1.873113700E+01  3.349460000E-02
  2.825393700E+00  2.347269500E-01
  6.401217000E-01  8.137573300E-01
   s   1
  1.612778000E-01  1.000000000E+00
 
  12
   s   3
  1.873113700E+01  3.349460000E-02
  2.825393700E+00  2.347269500E-01
  6.401217000E-01  8.137573300E-01
   s   1
  1.612778000E-01  1.000000000E+00
 
  13
   s   3
  1.873113700E+01  3.349460000E-02
  2.825393700E+00  2.347269500E-01
  6.401217000E-01  8.137573300E-01
   s   1
  1.612778000E-01  1.000000000E+00
 
  14
   s   3
  1.873113700E+01  3.349460000E-02
  2.825393700E+00  2.347269500E-01
  6.401217000E-01  8.137573300E-01
   s   1
  1.612778000E-01  1.000000000E+00
 
  15
   s   3
  1.873113700E+01  3.349460000E-02
  2.825393700E+00  2.347269500E-01
  6.401217000E-01  8.137573300E-01
   s   1
  1.612778000E-01  1.000000000E+00
 
  16
   s   3
  1.873113700E+01  3.349460000E-02
  2.825393700E+00  2.347269500E-01
  6.401217000E-01  8.137573300E-01
   s   1
  1.612778000E-01  1.000000000E+00
 
  17
   s   3
  1.873113700E+01  3.349460000E-02
  2.825393700E+00  2.347269500E-01
  6.401217000E-01  8.137573300E-01
   s   1
  1.612778000E-01  1.000000000E+00
 
  18
   s   3
  1.873113700E+01  3.349460000E-02
  2.825393700E+00  2.347269500E-01
  6.401217000E-01  8.137573300E-01
   s   1
  1.612778000E-01  1.000000000E+00
 
[MO]
Sym=     1a
Ene=     0.0000
Spin= Alpha
Occup=    0.00000
   1        -0.04648930
   2         0.26593484
   3         0.27409637
   4        -0.16895048
   5        -0.00000703
   6         0.23731223
   7         0.02010271
   8        -0.03599452
   9        -0.00000137
  10         0.00950701
  11        -0.00381184
  12        -0.00855904
  13        -0.00974287
  14        -0.00000042
  15         0.00000023
  16        -0.04660643
  17         0.26829674
  18        -0.27830305
  19         0.15228523
  20         0.00000643
  21         0.16605410
  22        -0.03311617
  23        -0.05448762
  24        -0.00000188
  25         0.00546302
  26        -0.00174159
  27        -0.00856233
  28        -0.01139589
  29        -0.00000047
  30         0.00000032
  31         0.00000000
  32         0.00000000
  33         0.00000000
  34         0.00000000
  35         0.00000000
  36         0.00000000
  37         0.00000000
  38         0.00000000
  39         0.00000000
  40         0.00000000
  41         0.00000000
  42         0.00000000
  43         0.00000000
  44         0.00000000
  45         0.00000000
  46         0.00000000
  47         0.00000000
  48         0.00000000
  49         0.00000000
  50         0.00000000
  51         0.00000000
  52         0.00000000
  53         0.00000000
  54         0.00000000
  55         0.00000000
  56         0.00000000
  57         0.00000000
  58         0.00000000
  59         0.00000000
  60         0.00000000
  61         0.00000000
  62         0.00000000
  63         0.00000000
  64         0.00000000
  65         0.00000000
  66         0.00000000
  67         0.00000000
  68         0.00000000
  69         0.00000000
  70         0.00000000
  71         0.00000000
  72         0.00000000
  73         0.00000000
  74         0.00000000
  75         0.00000000
  76         0.00000000
  77         0.00000000
  78         0.00000000
  79         0.00000000
  80         0.00000000
  81         0.00000000
  82         0.00000000
  83         0.00000000
  84         0.00000000
  85         0.00000000
  86         0.00000000
  87         0.00000000
  88         0.00000000
  89         0.00000000
  90         0.00000000
  91         0.00000000
  92         0.00000000
  93         0.00000000
  94         0.00000000
  95         0.00000000
  96         0.00000000
  97         0.00000000
  98         0.00000000
  99         0.00000000
 100         0.00000000
 101         0.00000000
 102         0.00000000
 103         0.00000000
 104         0.00000000
 105         0.00000000
 106         0.00000000
 107         0.00000000
 108         0.00000000
 109         0.00000000
 110         0.00000000
 111         0.00000000
 112         0.00000000
 113         0.00000000
 114         0.00000000
 115         0.00000000
 116         0.00000000
 117         0.00000000
 118         0.00000000
 119         0.00000000
 120         0.00000000
 121         0.00000000
 122         0.00000000
 123         0.00000000
 124         0.00000000
 125         0.00000000
 126         0.00000000
 127         0.00000000
 128         0.00000000
 129         0.00000000
 130         0.00000000
 131         0.00000000
 132         0.00000000
 133         0.00000000
 134         0.00000000
 135         0.00000000
 136         0.00000000
 137         0.00000000
 138         0.00000000
 139         0.00000000
 140         0.00000000
 141         0.00000000
 142         0.00000000
 143         0.00000000
 144         0.00000000
 145         0.00000000
 146         0.00000000
 147         0.00000000
 148         0.00000000
 149         0.00000000
 150         0.00000000
 151         0.00000000
 152         0.00000000
 153         0.00000000
 154         0.00000000
 155         0.00000000
 156         0.00000000
 157         0.00000000
 158         0.00000000
 159         0.00000000
 160         0.00000000
 161         0.00000000
 162         0.00000000
 163         0.00000000
 164         0.00000000
 165         0.00000000
 166         0.00000000
Sym=     2a
Ene=     0.0000
Spin= Alpha
Occup=    0.00000
   1         0.04360145
   2        -0.24930935
   3         0.00827761
   4        -0.31801555
   5        -0.00001163
   6        -0.21532495
   7         0.02573145
   8        -0.03177367
   9        -0.00000124
  10         0.00724060
  11        -0.01341570
  12         0.00792069
  13        -0.00161138
  14        -0.00000006
  15        -0.00000089
  16         0.00000000
  17         0.00000000
  18         0.00000000
  19         0.00000000
  20         0.00000000
  21         0.00000000
  22         0.00000000
  23         0.00000000
  24         0.00000000
  25         0.00000000
  26         0.00000000
  27         0.00000000
  28         0.00000000
  29         0.00000000
  30         0.00000000
  31         0.00000000
  32         0.00000000
  33         0.00000000
  34         0.00000000
  35         0.00000000
  36         0.00000000
  37         0.00000000
  38         0.00000000
  39         0.00000000
  40         0.00000000
  41         0.00000000
  42         0.00000000
  43         0.00000000
  44         0.00000000
  45         0.00000000
  46         0.00000000
  47         0.00000000
  48         0.00000000
  49         0.00000000
  50         0.00000000
  51         0.00000000
  52         0.00000000
  53         0.00000000
  54         0.00000000
  55         0.00000000
  56         0.00000000
  57         0.00000000
  58         0.00000000
  59         0.00000000
  60         0.00000000
  61         0.00000000
  62         0.00000000
  63         0.00000000
  64         0.00000000
  65         0.00000000
  66         0.00000000
  67         0.00000000
  68         0.00000000
  69         0.00000000
  70         0.00000000
  71         0.00000000
  72         0.00000000
  73         0.00000000
  74         0.00000000
  75         0.00000000
  76         0.00000000
  77         0.00000000
  78         0.00000000
  79         0.00000000
  80         0.00000000
  81         0.00000000
  82         0.00000000
  83         0.00000000
  84         0.00000000
  85         0.00000000
  86         0.00000000
  87         0.00000000
  88         0.00000000
  89         0.00000000
  90         0.00000000
  91         0.00000000
  92         0.00000000
  93         0.00000000
  94         0.00000000
  95         0.00000000
  96         0.00000000
  97         0.00000000
  98         0.00000000
  99         0.00000000
 100         0.00000000
 101         0.00000000
 102         0.00000000
 103         0.00000000
 104         0.00000000
 105         0.00000000
 106         0.00000000
 107         0.00000000
 108         0.00000000
 109         0.00000000
 110         0.00000000
 111         0.00000000
 112         0.00000000
 113         0.00000000
 114         0.00000000
 115         0.00000000
 116         0.00000000
 117         0.00000000
 118         0.00000000
 119         0.00000000
 120         0.00000000
 121         0.00000000
 122         0.00000000
 123         0.00000000
 124         0.00000000
 125         0.00000000
 126         0.00000000
 127         0.00000000
 128         0.00000000
 129         0.00000000
 130         0.00000000
 131         0.00000000
 132         0.00000000
 133         0.00000000
 134         0.00000000
 135         0.00000000
 136         0.04360145
 137        -0.24930935
 138         0.00827701
 139         0.31801557
 140         0.00001157
 141        -0.21532496
 142         0.02573139
 143         0.03177372
 144         0.00000108
 145         0.00724060
 146        -0.01341569
 147         0.00792069
 148         0.00161143
 149         0.00000006
 150        -0.00000090
 151         0.00000000
 152         0.00000000
 153         0.00000000
 154         0.00000000
 155         0.00000000
 156         0.00000000
 157         0.00000000
 158         0.00000000
 159         0.00000000
 160         0.00000000
 161         0.00000000
 162         0.00000000
 163         0.00000000
 164         0.00000000
 165         0.00000000
 166         0.00000000
Sym=     3a
Ene=     0.0000
Spin= Alpha
Occup=    0.00000
   1         0.04441220
   2        -0.20182011
   3         0.30343225
   4         0.17503660
   5         0.00000541
   6        -0.28592592
   7        -0.00186581
   8        -0.00772614
   9        -0.00000028
  10        -0.01659362
  11        -0.00124356
  12         0.00562463
  13        -0.01500054
  14        -0.00000046
  15        -0.00000024
  16         0.00000000
  17         0.00000000
  18         0.00000000
  19         0.00000000
  20         0.00000000
  21         0.00000000
  22         0.00000000
  23         0.00000000
  24         0.00000000
  25         0.00000000
  26         0.00000000
  27         0.00000000
  28         0.00000000
  29         0.00000000
  30         0.00000000
  31         0.00000000
  32         0.00000000
  33         0.00000000
  34         0.00000000
  35         0.00000000
  36         0.00000000
  37         0.00000000
  38         0.00000000
  39         0.00000000
  40         0.00000000
  41         0.00000000
  42         0.00000000
  43         0.00000000
  44         0.00000000
  45         0.00000000
  46         0.00000000
  47         0.00000000
  48         0.00000000
  49         0.00000000
  50         0.00000000
  51         0.00000000
  52         0.00000000
  53         0.00000000
  54         0.00000000
  55         0.00000000
  56         0.00000000
  57         0.00000000
  58         0.00000000
  59         0.00000000
  60         0.00000000
  61         0.00000000
  62         0.00000000
  63         0.00000000
  64         0.00000000
  65         0.00000000
  66         0.00000000
  67         0.00000000
  68         0.00000000
  69         0.00000000
  70         0.00000000
  71         0.00000000
  72         0.00000000
  73         0.00000000
  74         0.00000000
  75         0.00000000
  76         0.00000000
  77         0.00000000
  78         0.00000000
  79         0.00000000
  80         0.00000000
  81         0.00000000
  82         0.00000000
  83         0.00000000
  84         0.00000000
  85         0.00000000
  86         0.00000000
  87         0.00000000
  88         0.00000000
  89         0.00000000
  90         0.00000000
  91         0.00000000
  92         0.00000000
  93         0.00000000
  94         0.00000000
  95         0.00000000
  96         0.00000000
  97         0.00000000
  98         0.00000000
  99         0.00000000
 100         0.00000000
 101         0.00000000
 102         0.00000000
 103         0.00000000
 104         0.00000000
 105         0.00000000
 106         0.00000000
 107         0.00000000
 108         0.00000000
 109         0.00000000
 110         0.00000000
 111         0.00000000
 112         0.00000000
 113         0.00000000
 114         0.00000000
 115         0.00000000
 116         0.00000000
 117         0.00000000
 118         0.00000000
 119         0.00000000
 120         0.00000000
 121         0.00000000
 122         0.00000000
 123         0.00000000
 124         0.00000000
 125         0.00000000
 126         0.00000000
 127         0.00000000
 128         0.00000000
 129         0.00000000
 130         0.00000000
 131         0.00000000
 132         0.00000000
 133         0.00000000
 134         0.00000000
 135         0.00000000
 136         0.00000000
 137         0.00000000
 138         0.00000000
 139         0.00000000
 140         0.00000000
 141         0.00000000
 142         0.00000000
 143         0.00000000
 144         0.00000000
 145         0.00000000
 146         0.00000000
 147         0.00000000
 148         0.00000000
 149         0.00000000
 150         0.00000000
 151        -0.31149701
 152        -0.26046396
 153         0.00000000
 154         0.00000000
 155         0.00000000
 156         0.00000000
 157         0.00000000
 158         0.00000000
 159         0.00000000
 160         0.00000000
 161         0.00000000
 162         0.00000000
 163         0.00000000
 164         0.00000000
 165         0.00000000
 166         0.00000000
Sym=     4a
Ene=     0.0000
Spin= Alpha
Occup=    0.00000
   1         0.00000000
   2         0.00000000
   3         0.00000000
   4         0.00000000
   5         0.00000000
   6         0.00000000
   7         0.00000000
   8         0.00000000
   9         0.00000000
  10         0.00000000
  11         0.00000000
  12         0.00000000
  13         0.00000000
  14         0.00000000
  15         0.00000000
  16        -0.04046438
  17         0.23501793
  18         0.26732229
  19         0.14063233
  20         0.00000428
  21         0.32479363
  22         0.04759923
  23         0.04324453
  24         0.00000143
  25         0.00963164
  26         0.00108254
  27        -0.00629952
  28         0.01075716
  29         0.00000033
  30         0.00000028
  31        -0.04124902
  32         0.23403993
  33        -0.26410340
  34        -0.15151118
  35        -0.00000469
  36         0.23082024
  37         0.12786325
  38         0.02454011
  39         0.00000049
  40         0.00944258
  41        -0.00006661
  42        -0.00503396
  43         0.00882820
  44         0.00000027
  45         0.00000018
  46         0.00000000
  47         0.00000000
  48         0.00000000
  49         0.00000000
  50         0.00000000
  51         0.00000000
  52         0.00000000
  53         0.00000000
  54         0.00000000
  55         0.00000000
  56         0.00000000
  57         0.00000000
  58         0.00000000
  59         0.00000000
  60         0.00000000
  61         0.00000000
  62         0.00000000
  63         0.00000000
  64         0.00000000
  65         0.00000000
  66         0.00000000
  67         0.00000000
  68         0.00000000
  69         0.00000000
  70         0.00000000
  71         0.00000000
  72         0.00000000
  73         0.00000000
  74         0.00000000
  75         0.00000000
  76         0.00000000
  77         0.00000000
  78         0.00000000
  79         0.00000000
  80         0.00000000
  81         0.00000000
  82         0.00000000
  83         0.00000000
  84         0.00000000
  85         0.00000000
  86         0.00000000
  87         0.00000000
  88         0.00000000
  89         0.00000000
  90         0.00000000
  91         0.00000000
  92         0.00000000
  93         0.00000000
  94         0.00000000
  95         0.00000000
  96         0.00000000
  97         0.00000000
  98         0.00000000
  99         0.00000000
 100         0.00000000
 101         0.00000000
 102         0.00000000
 103         0.00000000
 104         0.00000000
 105         0.00000000
 106         0.00000000
 107         0.00000000
 108         0.00000000
 109         0.00000000
 110         0.00000000
 111         0.00000000
 112         0.00000000
 113         0.00000000
 114         0.00000000
 115         0.00000000
 116         0.00000000
 117         0.00000000
 118         0.00000000
 119         0.00000000
 120         0.00000000
 121         0.00000000
 122         0.00000000
 123         0.00000000
 124         0.00000000
 125         0.00000000
 126         0.00000000
 127         0.00000000
 128         0.00000000
 129         0.00000000
 130         0.00000000
 131         0.00000000
 132         0.00000000
 133         0.00000000
 134         0.00000000
 135         0.00000000
 136         0.00000000
 137         0.00000000
 138         0.00000000
 139         0.00000000
 140         0.00000000
 141         0.00000000
 142         0.00000000
 143         0.00000000
 144         0.00000000
 145         0.00000000
 146         0.00000000
 147         0.00000000
 148         0.00000000
 149         0.00000000
 150         0.00000000
 151         0.00000000
 152         0.00000000
 153         0.00000000
 154         0.00000000
 155         0.00000000
 156         0.00000000
 157         0.00000000
 158         0.00000000
 159         0.00000000
 160         0.00000000
 161         0.00000000
 162         0.00000000
 163         0.00000000
 164         0.00000000
 165         0.00000000
 166         0.00000000
Sym=     5a
Ene=     0.0000
Spin= Alpha
Occup=    0.00000
   1         0.00000000
   2         0.00000000
   3         0.00000000
   4         0.00000000
   5         0.00000000
   6         0.00000000
   7         0.00000000
   8         0.00000000
   9         0.00000000
  10         0.00000000
  11         0.00000000
  12         0.00000000
  13         0.00000000
  14         0.00000000
  15         0.00000000
  16         0.04323581
  17        -0.19920215
  18         0.00193307
  19         0.34239366
  20         0.00001248
  21        -0.30194670
  22         0.00779376
  23        -0.02766787
  24        -0.00000103
  25         0.00528080
  26        -0.02462227
  27         0.00471696
  28         0.00032656
  29         0.00000001
  30        -0.00000124
  31         0.00000000
  32         0.00000000
  33         0.00000000
  34         0.00000000
  35         0.00000000
  36         0.00000000
  37         0.00000000
  38         0.00000000
  39         0.00000000
  40         0.00000000
  41         0.00000000
  42         0.00000000
  43         0.00000000
  44         0.00000000
  45         0.00000000
  46         0.00000000
  47         0.00000000
  48         0.00000000
  49         0.00000000
  50         0.00000000
  51         0.00000000
  52         0.00000000
  53         0.00000000
  54         0.00000000
  55         0.00000000
  56         0.00000000
  57         0.00000000
  58         0.00000000
  59         0.00000000
  60         0.00000000
  61         0.00000000
  62         0.00000000
  63         0.00000000
  64         0.00000000
  65         0.00000000
  66         0.00000000
  67         0.00000000
  68         0.00000000
  69         0.00000000
  70         0.00000000
  71         0.00000000
  72         0.00000000
  73         0.00000000
  74         0.00000000
  75         0.00000000
  76         0.00000000
  77         0.00000000
  78         0.00000000
  79         0.00000000
  80         0.00000000
  81         0.00000000
  82         0.00000000
  83         0.00000000
  84         0.00000000
  85         0.00000000
  86         0.00000000
  87         0.00000000
  88         0.00000000
  89         0.00000000
  90         0.00000000
  91         0.00000000
  92         0.00000000
  93         0.00000000
  94         0.00000000
  95         0.00000000
  96         0.00000000
  97         0.00000000
  98         0.00000000
  99         0.00000000
 100         0.00000000
 101         0.00000000
 102         0.00000000
 103         0.00000000
 104         0.00000000
 105         0.00000000
 106         0.00000000
 107         0.00000000
 108         0.00000000
 109         0.00000000
 110         0.00000000
 111         0.00000000
 112         0.00000000
 113         0.00000000
 114         0.00000000
 115         0.00000000
 116         0.00000000
 117         0.00000000
 118         0.00000000
 119         0.00000000
 120         0.00000000
 121         0.00000000
 122         0.00000000
 123         0.00000000
 124         0.00000000
 125         0.00000000
 126         0.00000000
 127         0.00000000
 128         0.00000000
 129         0.00000000
 130         0.00000000
 131         0.00000000
 132         0.00000000
 133         0.00000000
 134         0.00000000
 135         0.00000000
 136         0.00000000
 137         0.00000000
 138         0.00000000
 139         0.00000000
 140         0.00000000
 141         0.00000000
 142         0.00000000
 143         0.00000000
 144         0.00000000
 145         0.00000000
 146         0.00000000
 147         0.00000000
 148         0.00000000
 149         0.00000000
 150         0.00000000
 151         0.00000000
 152         0.00000000
 153        -0.30884753
 154        -0.26698596
 155         0.00000000
 156         0.00000000
 157         0.00000000
 158         0.00000000
 159         0.00000000
 160         0.00000000
 161         0.00000000
 162         0.00000000
 163         0.00000000
 164         0.00000000
 165         0.00000000
 166         0.00000000
Sym=     6a
Ene=     0.0000
Spin= Alpha
Occup=    0.00000
   1         0.00000000
   2         0.00000000
   3         0.00000000
   4         0.00000000
   5         0.00000000
   6         0.00000000
   7         0.00000000
   8         0.00000000
   9         0.00000000
  10         0.00000000
  11         0.00000000
  12         0.00000000
  13         0.00000000
  14         0.00000000
  15         0.00000000
  16         0.00000000
  17         0.00000000
  18         0.00000000
  19         0.00000000
  20         0.00000000
  21         0.00000000
  22         0.00000000
  23         0.00000000
  24         0.00000000
  25         0.00000000
  26         0.00000000
  27         0.00000000
  28         0.00000000
  29         0.00000000
  30         0.00000000