[Molden Format]
[N_Atoms]
                   18
[Atoms] (AU)
C           1      6          -6.81671612     -1.33895425      0.00058772
C           2      6          -4.57079277     -2.65014774      0.00053281
C           3      6          -2.21862419     -1.35454766      0.00057261
C           4      6           0.13297335     -2.64960193      0.00051789
C           5      6           2.38033426     -1.33884702      0.00055855
C           6      6           2.38033173      1.33885151      0.00065628
C           7      6           0.13296835      2.64960218      0.00071121
C           8      6          -2.21862675      1.35454347      0.00067139
C           9      6          -4.57079778      2.65013911      0.00072604
C          10      6          -6.81671865      1.33894138      0.00068540
H          11      1          -8.60188269     -2.35360939      0.00055649
H          12      1          -4.56483628     -4.70542965      0.00045783
H          13      1           0.12767585     -4.70492158      0.00044288
H          14      1           4.16471608     -2.35444686      0.00051589
H          15      1           4.16471163      2.35445472      0.00068753
H          16      1           0.12766697      4.70492182      0.00078612
H          17      1          -4.56484516      4.70542103      0.00080100
H          18      1          -8.60188713      2.35359315      0.00072798
[Charge] (Mulliken)
   0.0000000000000000
   0.0000000000000000
   0.0000000000000000
   0.0000000000000000
   0.0000000000000000
   0.0000000000000000
   0.0000000000000000
   0.0000000000000000
   0.0000000000000000
   0.0000000000000000
   0.0000000000000000
   0.0000000000000000
   0.0000000000000000
   0.0000000000000000
   0.0000000000000000
   0.0000000000000000
   0.0000000000000000
   0.0000000000000000
[GTO] (AU)
   1
   s   6
  3.047524900E+03  1.834700000E-03
  4.573695100E+02  1.403730000E-02
  1.039486900E+02  6.884260000E-02
  2.921015500E+01  2.321844000E-01
  9.286663000E+00  4.679413000E-01
  3.163927000E+00  3.623120000E-01
   s   3
  7.868272400E+00 -1.193324000E-01
  1.881288500E+00 -1.608542000E-01
  5.442493000E-01  1.143456400E+00
   p   3
  7.868272400E+00  6.899910000E-02
  1.881288500E+00  3.164240000E-01
  5.442493000E-01  7.443083000E-01
   s   1
  1.687144000E-01  1.000000000E+00
   p   1
  1.687144000E-01  1.000000000E+00
   d   1
  8.000000000E-01  1.000000000E+00
 
   2
   s   6
  3.047524900E+03  1.834700000E-03
  4.573695100E+02  1.403730000E-02
  1.039486900E+02  6.884260000E-02
  2.921015500E+01  2.321844000E-01
  9.286663000E+00  4.679413000E-01
  3.163927000E+00  3.623120000E-01
   s   3
  7.868272400E+00 -1.193324000E-01
  1.881288500E+00 -1.608542000E-01
  5.442493000E-01  1.143456400E+00
   p   3
  7.868272400E+00  6.899910000E-02
  1.881288500E+00  3.164240000E-01
  5.442493000E-01  7.443083000E-01
   s   1
  1.687144000E-01  1.000000000E+00
   p   1
  1.687144000E-01  1.000000000E+00
   d   1
  8.000000000E-01  1.000000000E+00
 
   3
   s   6
  3.047524900E+03  1.834700000E-03
  4.573695100E+02  1.403730000E-02
  1.039486900E+02  6.884260000E-02
  2.921015500E+01  2.321844000E-01
  9.286663000E+00  4.679413000E-01
  3.163927000E+00  3.623120000E-01
   s   3
  7.868272400E+00 -1.193324000E-01
  1.881288500E+00 -1.608542000E-01
  5.442493000E-01  1.143456400E+00
   p   3
  7.868272400E+00  6.899910000E-02
  1.881288500E+00  3.164240000E-01
  5.442493000E-01  7.443083000E-01
   s   1
  1.687144000E-01  1.000000000E+00
   p   1
  1.687144000E-01  1.000000000E+00
   d   1
  8.000000000E-01  1.000000000E+00
 
   4
   s   6
  3.047524900E+03  1.834700000E-03
  4.573695100E+02  1.403730000E-02
  1.039486900E+02  6.884260000E-02
  2.921015500E+01  2.321844000E-01
  9.286663000E+00  4.679413000E-01
  3.163927000E+00  3.623120000E-01
   s   3
  7.868272400E+00 -1.193324000E-01
  1.881288500E+00 -1.608542000E-01
  5.442493000E-01  1.143456400E+00
   p   3
  7.868272400E+00  6.899910000E-02
  1.881288500E+00  3.164240000E-01
  5.442493000E-01  7.443083000E-01
   s   1
  1.687144000E-01  1.000000000E+00
   p   1
  1.687144000E-01  1.000000000E+00
   d   1
  8.000000000E-01  1.000000000E+00
 
   5
   s   6
  3.047524900E+03  1.834700000E-03
  4.573695100E+02  1.403730000E-02
  1.039486900E+02  6.884260000E-02
  2.921015500E+01  2.321844000E-01
  9.286663000E+00  4.679413000E-01
  3.163927000E+00  3.623120000E-01
   s   3
  7.868272400E+00 -1.193324000E-01
  1.881288500E+00 -1.608542000E-01
  5.442493000E-01  1.143456400E+00
   p   3
  7.868272400E+00  6.899910000E-02
  1.881288500E+00  3.164240000E-01
  5.442493000E-01  7.443083000E-01
   s   1
  1.687144000E-01  1.000000000E+00
   p   1
  1.687144000E-01  1.000000000E+00
   d   1
  8.000000000E-01  1.000000000E+00
 
   6
   s   6
  3.047524900E+03  1.834700000E-03
  4.573695100E+02  1.403730000E-02
  1.039486900E+02  6.884260000E-02
  2.921015500E+01  2.321844000E-01
  9.286663000E+00  4.679413000E-01
  3.163927000E+00  3.623120000E-01
   s   3
  7.868272400E+00 -1.193324000E-01
  1.881288500E+00 -1.608542000E-01
  5.442493000E-01  1.143456400E+00
   p   3
  7.868272400E+00  6.899910000E-02
  1.881288500E+00  3.164240000E-01
  5.442493000E-01  7.443083000E-01
   s   1
  1.687144000E-01  1.000000000E+00
   p   1
  1.687144000E-01  1.000000000E+00
   d   1
  8.000000000E-01  1.000000000E+00
 
   7
   s   6
  3.047524900E+03  1.834700000E-03
  4.573695100E+02  1.403730000E-02
  1.039486900E+02  6.884260000E-02
  2.921015500E+01  2.321844000E-01
  9.286663000E+00  4.679413000E-01
  3.163927000E+00  3.623120000E-01
   s   3
  7.868272400E+00 -1.193324000E-01
  1.881288500E+00 -1.608542000E-01
  5.442493000E-01  1.143456400E+00
   p   3
  7.868272400E+00  6.899910000E-02
  1.881288500E+00  3.164240000E-01
  5.442493000E-01  7.443083000E-01
   s   1
  1.687144000E-01  1.000000000E+00
   p   1
  1.687144000E-01  1.000000000E+00
   d   1
  8.000000000E-01  1.000000000E+00
 
   8
   s   6
  3.047524900E+03  1.834700000E-03
  4.573695100E+02  1.403730000E-02
  1.039486900E+02  6.884260000E-02
  2.921015500E+01  2.321844000E-01
  9.286663000E+00  4.679413000E-01
  3.163927000E+00  3.623120000E-01
   s   3
  7.868272400E+00 -1.193324000E-01
  1.881288500E+00 -1.608542000E-01
  5.442493000E-01  1.143456400E+00
   p   3
  7.868272400E+00  6.899910000E-02
  1.881288500E+00  3.164240000E-01
  5.442493000E-01  7.443083000E-01
   s   1
  1.687144000E-01  1.000000000E+00
   p   1
  1.687144000E-01  1.000000000E+00
   d   1
  8.000000000E-01  1.000000000E+00
 
   9
   s   6
  3.047524900E+03  1.834700000E-03
  4.573695100E+02  1.403730000E-02
  1.039486900E+02  6.884260000E-02
  2.921015500E+01  2.321844000E-01
  9.286663000E+00  4.679413000E-01
  3.163927000E+00  3.623120000E-01
   s   3
  7.868272400E+00 -1.193324000E-01
  1.881288500E+00 -1.608542000E-01
  5.442493000E-01  1.143456400E+00
   p   3
  7.868272400E+00  6.899910000E-02
  1.881288500E+00  3.164240000E-01
  5.442493000E-01  7.443083000E-01
   s   1
  1.687144000E-01  1.000000000E+00
   p   1
  1.687144000E-01  1.000000000E+00
   d   1
  8.000000000E-01  1.000000000E+00
 
  10
   s   6
  3.047524900E+03  1.834700000E-03
  4.573695100E+02  1.403730000E-02
  1.039486900E+02  6.884260000E-02
  2.921015500E+01  2.321844000E-01
  9.286663000E+00  4.679413000E-01
  3.163927000E+00  3.623120000E-01
   s   3
  7.868272400E+00 -1.193324000E-01
  1.881288500E+00 -1.608542000E-01
  5.442493000E-01  1.143456400E+00
   p   3
  7.868272400E+00  6.899910000E-02
  1.881288500E+00  3.164240000E-01
  5.442493000E-01  7.443083000E-01
   s   1
  1.687144000E-01  1.000000000E+00
   p   1
  1.687144000E-01  1.000000000E+00
   d   1
  8.000000000E-01  1.000000000E+00
 
  11
   s   3
  1.873113700E+01  3.349460000E-02
  2.825393700E+00  2.347269500E-01
  6.401217000E-01  8.137573300E-01
   s   1
  1.612778000E-01  1.000000000E+00
 
  12
   s   3
  1.873113700E+01  3.349460000E-02
  2.825393700E+00  2.347269500E-01
  6.401217000E-01  8.137573300E-01
   s   1
  1.612778000E-01  1.000000000E+00
 
  13
   s   3
  1.873113700E+01  3.349460000E-02
  2.825393700E+00  2.347269500E-01
  6.401217000E-01  8.137573300E-01
   s   1
  1.612778000E-01  1.000000000E+00
 
  14
   s   3
  1.873113700E+01  3.349460000E-02
  2.825393700E+00  2.347269500E-01
  6.401217000E-01  8.137573300E-01
   s   1
  1.612778000E-01  1.000000000E+00
 
  15
   s   3
  1.873113700E+01  3.349460000E-02
  2.825393700E+00  2.347269500E-01
  6.401217000E-01  8.137573300E-01
   s   1
  1.612778000E-01  1.000000000E+00
 
  16
   s   3
  1.873113700E+01  3.349460000E-02
  2.825393700E+00  2.347269500E-01
  6.401217000E-01  8.137573300E-01
   s   1
  1.612778000E-01  1.000000000E+00
 
  17
   s   3
  1.873113700E+01  3.349460000E-02
  2.825393700E+00  2.347269500E-01
  6.401217000E-01  8.137573300E-01
   s   1
  1.612778000E-01  1.000000000E+00
 
  18
   s   3
  1.873113700E+01  3.349460000E-02
  2.825393700E+00  2.347269500E-01
  6.401217000E-01  8.137573300E-01
   s   1
  1.612778000E-01  1.000000000E+00
 
[MO]
Sym=     1a
Ene=     0.0000
Spin= Alpha
Occup=    0.00000
   1        -0.04540129
   2         0.26861703
   3         0.25860034
   4        -0.15452743
   5        -0.00000646
   6         0.12546791
   7         0.09772501
   8        -0.04803871
   9        -0.00000205
  10         0.01871012
  11         0.00141673
  12        -0.00801165
  13        -0.01419884
  14        -0.00000055
  15         0.00000042
  16        -0.04521003
  17         0.26872634
  18        -0.26198360
  19         0.14920384
  20         0.00000629
  21         0.13494178
  22        -0.09516282
  23         0.06378352
  24         0.00000264
  25         0.01586512
  26         0.00379345
  27        -0.00814607
  28        -0.01600679
  29        -0.00000070
  30         0.00000065
  31         0.00000000
  32         0.00000000
  33         0.00000000
  34         0.00000000
  35         0.00000000
  36         0.00000000
  37         0.00000000
  38         0.00000000
  39         0.00000000
  40         0.00000000
  41         0.00000000
  42         0.00000000
  43         0.00000000
  44         0.00000000
  45         0.00000000
  46         0.00000000
  47         0.00000000
  48         0.00000000
  49         0.00000000
  50         0.00000000
  51         0.00000000
  52         0.00000000
  53         0.00000000
  54         0.00000000
  55         0.00000000
  56         0.00000000
  57         0.00000000
  58         0.00000000
  59         0.00000000
  60         0.00000000
  61         0.00000000
  62         0.00000000
  63         0.00000000
  64         0.00000000
  65         0.00000000
  66         0.00000000
  67         0.00000000
  68         0.00000000
  69         0.00000000
  70         0.00000000
  71         0.00000000
  72         0.00000000
  73         0.00000000
  74         0.00000000
  75         0.00000000
  76         0.00000000
  77         0.00000000
  78         0.00000000
  79         0.00000000
  80         0.00000000
  81         0.00000000
  82         0.00000000
  83         0.00000000
  84         0.00000000
  85         0.00000000
  86         0.00000000
  87         0.00000000
  88         0.00000000
  89         0.00000000
  90         0.00000000
  91         0.00000000
  92         0.00000000
  93         0.00000000
  94         0.00000000
  95         0.00000000
  96         0.00000000
  97         0.00000000
  98         0.00000000
  99         0.00000000
 100         0.00000000
 101         0.00000000
 102         0.00000000
 103         0.00000000
 104         0.00000000
 105         0.00000000
 106         0.00000000
 107         0.00000000
 108         0.00000000
 109         0.00000000
 110         0.00000000
 111         0.00000000
 112         0.00000000
 113         0.00000000
 114         0.00000000
 115         0.00000000
 116         0.00000000
 117         0.00000000
 118         0.00000000
 119         0.00000000
 120         0.00000000
 121         0.00000000
 122         0.00000000
 123         0.00000000
 124         0.00000000
 125         0.00000000
 126         0.00000000
 127         0.00000000
 128         0.00000000
 129         0.00000000
 130         0.00000000
 131         0.00000000
 132         0.00000000
 133         0.00000000
 134         0.00000000
 135         0.00000000
 136         0.00000000
 137         0.00000000
 138         0.00000000
 139         0.00000000
 140         0.00000000
 141         0.00000000
 142         0.00000000
 143         0.00000000
 144         0.00000000
 145         0.00000000
 146         0.00000000
 147         0.00000000
 148         0.00000000
 149         0.00000000
 150         0.00000000
 151         0.00000000
 152         0.00000000
 153         0.00000000
 154         0.00000000
 155         0.00000000
 156         0.00000000
 157         0.00000000
 158         0.00000000
 159         0.00000000
 160         0.00000000
 161         0.00000000
 162         0.00000000
 163         0.00000000
 164         0.00000000
 165         0.00000000
 166         0.00000000
Sym=     2a
Ene=     0.0000
Spin= Alpha
Occup=    0.00000
   1         0.04284548
   2        -0.26255654
   3         0.00649847
   4        -0.30113892
   5        -0.00001102
   6        -0.13459324
   7        -0.00669725
   8        -0.11746938
   9        -0.00000427
  10         0.00358033
  11        -0.02597771
  12         0.00812329
  13        -0.00142916
  14        -0.00000003
  15        -0.00000142
  16         0.00000000
  17         0.00000000
  18         0.00000000
  19         0.00000000
  20         0.00000000
  21         0.00000000
  22         0.00000000
  23         0.00000000
  24         0.00000000
  25         0.00000000
  26         0.00000000
  27         0.00000000
  28         0.00000000
  29         0.00000000
  30         0.00000000
  31         0.00000000
  32         0.00000000
  33         0.00000000
  34         0.00000000
  35         0.00000000
  36         0.00000000
  37         0.00000000
  38         0.00000000
  39         0.00000000
  40         0.00000000
  41         0.00000000
  42         0.00000000
  43         0.00000000
  44         0.00000000
  45         0.00000000
  46         0.00000000
  47         0.00000000
  48         0.00000000
  49         0.00000000
  50         0.00000000
  51         0.00000000
  52         0.00000000
  53         0.00000000
  54         0.00000000
  55         0.00000000
  56         0.00000000
  57         0.00000000
  58         0.00000000
  59         0.00000000
  60         0.00000000
  61         0.00000000
  62         0.00000000
  63         0.00000000
  64         0.00000000
  65         0.00000000
  66         0.00000000
  67         0.00000000
  68         0.00000000
  69         0.00000000
  70         0.00000000
  71         0.00000000
  72         0.00000000
  73         0.00000000
  74         0.00000000
  75         0.00000000
  76         0.00000000
  77         0.00000000
  78         0.00000000
  79         0.00000000
  80         0.00000000
  81         0.00000000
  82         0.00000000
  83         0.00000000
  84         0.00000000
  85         0.00000000
  86         0.00000000
  87         0.00000000
  88         0.00000000
  89         0.00000000
  90         0.00000000
  91         0.00000000
  92         0.00000000
  93         0.00000000
  94         0.00000000
  95         0.00000000
  96         0.00000000
  97         0.00000000
  98         0.00000000
  99         0.00000000
 100         0.00000000
 101         0.00000000
 102         0.00000000
 103         0.00000000
 104         0.00000000
 105         0.00000000
 106         0.00000000
 107         0.00000000
 108         0.00000000
 109         0.00000000
 110         0.00000000
 111         0.00000000
 112         0.00000000
 113         0.00000000
 114         0.00000000
 115         0.00000000
 116         0.00000000
 117         0.00000000
 118         0.00000000
 119         0.00000000
 120         0.00000000
 121         0.00000000
 122         0.00000000
 123         0.00000000
 124         0.00000000
 125         0.00000000
 126         0.00000000
 127         0.00000000
 128         0.00000000
 129         0.00000000
 130         0.00000000
 131         0.00000000
 132         0.00000000
 133         0.00000000
 134         0.00000000
 135         0.00000000
 136         0.04284569
 137        -0.26255653
 138         0.00649791
 139         0.30113894
 140         0.00001096
 141        -0.13459323
 142        -0.00669747
 143         0.11746937
 144         0.00000430
 145         0.00358033
 146        -0.02597771
 147         0.00812329
 148         0.00142922
 149         0.00000007
 150        -0.00000149
 151         0.00000000
 152         0.00000000
 153         0.00000000
 154         0.00000000
 155         0.00000000
 156         0.00000000
 157         0.00000000
 158         0.00000000
 159         0.00000000
 160         0.00000000
 161         0.00000000
 162         0.00000000
 163         0.00000000
 164         0.00000000
 165         0.00000000
 166         0.00000000
Sym=     3a
Ene=     0.0000
Spin= Alpha
Occup=    0.00000
   1         0.04077037
   2        -0.25720832
   3         0.28404372
   4         0.15841898
   5         0.00000486
   6        -0.18782390
   7         0.14677834
   8         0.08232121
   9         0.00000254
  10        -0.02617095
  11        -0.00563263
  12         0.00893085
  13        -0.01973819
  14        -0.00000058
  15        -0.00000057
  16         0.00000000
  17         0.00000000
  18         0.00000000
  19         0.00000000
  20         0.00000000
  21         0.00000000
  22         0.00000000
  23         0.00000000
  24         0.00000000
  25         0.00000000
  26         0.00000000
  27         0.00000000
  28         0.00000000
  29         0.00000000
  30         0.00000000
  31         0.00000000
  32         0.00000000
  33         0.00000000
  34         0.00000000
  35         0.00000000
  36         0.00000000
  37         0.00000000
  38         0.00000000
  39         0.00000000
  40         0.00000000
  41         0.00000000
  42         0.00000000
  43         0.00000000
  44         0.00000000
  45         0.00000000
  46         0.00000000
  47         0.00000000
  48         0.00000000
  49         0.00000000
  50         0.00000000
  51         0.00000000
  52         0.00000000
  53         0.00000000
  54         0.00000000
  55         0.00000000
  56         0.00000000
  57         0.00000000
  58         0.00000000
  59         0.00000000
  60         0.00000000
  61         0.00000000
  62         0.00000000
  63         0.00000000
  64         0.00000000
  65         0.00000000
  66         0.00000000
  67         0.00000000
  68         0.00000000
  69         0.00000000
  70         0.00000000
  71         0.00000000
  72         0.00000000
  73         0.00000000
  74         0.00000000
  75         0.00000000
  76         0.00000000
  77         0.00000000
  78         0.00000000
  79         0.00000000
  80         0.00000000
  81         0.00000000
  82         0.00000000
  83         0.00000000
  84         0.00000000
  85         0.00000000
  86         0.00000000
  87         0.00000000
  88         0.00000000
  89         0.00000000
  90         0.00000000
  91         0.00000000
  92         0.00000000
  93         0.00000000
  94         0.00000000
  95         0.00000000
  96         0.00000000
  97         0.00000000
  98         0.00000000
  99         0.00000000
 100         0.00000000
 101         0.00000000
 102         0.00000000
 103         0.00000000
 104         0.00000000
 105         0.00000000
 106         0.00000000
 107         0.00000000
 108         0.00000000
 109         0.00000000
 110         0.00000000
 111         0.00000000
 112         0.00000000
 113         0.00000000
 114         0.00000000
 115         0.00000000
 116         0.00000000
 117         0.00000000
 118         0.00000000
 119         0.00000000
 120         0.00000000
 121         0.00000000
 122         0.00000000
 123         0.00000000
 124         0.00000000
 125         0.00000000
 126         0.00000000
 127         0.00000000
 128         0.00000000
 129         0.00000000
 130         0.00000000
 131         0.00000000
 132         0.00000000
 133         0.00000000
 134         0.00000000
 135         0.00000000
 136         0.00000000
 137         0.00000000
 138         0.00000000
 139         0.00000000
 140         0.00000000
 141         0.00000000
 142         0.00000000
 143         0.00000000
 144         0.00000000
 145         0.00000000
 146         0.00000000
 147         0.00000000
 148         0.00000000
 149         0.00000000
 150         0.00000000
 151        -0.30772947
 152        -0.19801533
 153         0.00000000
 154         0.00000000
 155         0.00000000
 156         0.00000000
 157         0.00000000
 158         0.00000000
 159         0.00000000
 160         0.00000000
 161         0.00000000
 162         0.00000000
 163         0.00000000
 164         0.00000000
 165         0.00000000
 166         0.00000000
Sym=     4a
Ene=     0.0000
Spin= Alpha
Occup=    0.00000
   1         0.00000000
   2         0.00000000
   3         0.00000000
   4         0.00000000
   5         0.00000000
   6         0.00000000
   7         0.00000000
   8         0.00000000
   9         0.00000000
  10         0.00000000
  11         0.00000000
  12         0.00000000
  13         0.00000000
  14         0.00000000
  15         0.00000000
  16        -0.03933222
  17         0.26203655
  18         0.26535242
  19         0.14029168
  20         0.00000428
  21         0.13048675
  22         0.09257888
  23         0.06925887
  24         0.00000223
  25         0.01880477
  26         0.00439874
  27        -0.00799817
  28         0.01507941
  29         0.00000048
  30         0.00000045
  31        -0.03557220
  32         0.26068259
  33        -0.26394252
  34        -0.14856849
  35        -0.00000458
  36         0.14122033
  37        -0.10169333
  38        -0.06389599
  39        -0.00000200
  40         0.01826815
  41         0.00219728
  42        -0.00802469
  43         0.01443007
  44         0.00000044
  45         0.00000037
  46         0.00000000
  47         0.00000000
  48         0.00000000
  49         0.00000000
  50         0.00000000
  51         0.00000000
  52         0.00000000
  53         0.00000000
  54         0.00000000
  55         0.00000000
  56         0.00000000
  57         0.00000000
  58         0.00000000
  59         0.00000000
  60         0.00000000
  61         0.00000000
  62         0.00000000
  63         0.00000000
  64         0.00000000
  65         0.00000000
  66         0.00000000
  67         0.00000000
  68         0.00000000
  69         0.00000000
  70         0.00000000
  71         0.00000000
  72         0.00000000
  73         0.00000000
  74         0.00000000
  75         0.00000000
  76         0.00000000
  77         0.00000000
  78         0.00000000
  79         0.00000000
  80         0.00000000
  81         0.00000000
  82         0.00000000
  83         0.00000000
  84         0.00000000
  85         0.00000000
  86         0.00000000
  87         0.00000000
  88         0.00000000
  89         0.00000000
  90         0.00000000
  91         0.00000000
  92         0.00000000
  93         0.00000000
  94         0.00000000
  95         0.00000000
  96         0.00000000
  97         0.00000000
  98         0.00000000
  99         0.00000000
 100         0.00000000
 101         0.00000000
 102         0.00000000
 103         0.00000000
 104         0.00000000
 105         0.00000000
 106         0.00000000
 107         0.00000000
 108         0.00000000
 109         0.00000000
 110         0.00000000
 111         0.00000000
 112         0.00000000
 113         0.00000000
 114         0.00000000
 115         0.00000000
 116         0.00000000
 117         0.00000000
 118         0.00000000
 119         0.00000000
 120         0.00000000
 121         0.00000000
 122         0.00000000
 123         0.00000000
 124         0.00000000
 125         0.00000000
 126         0.00000000
 127         0.00000000
 128         0.00000000
 129         0.00000000
 130         0.00000000
 131         0.00000000
 132         0.00000000
 133         0.00000000
 134         0.00000000
 135         0.00000000
 136         0.00000000
 137         0.00000000
 138         0.00000000
 139         0.00000000
 140         0.00000000
 141         0.00000000
 142         0.00000000
 143         0.00000000
 144         0.00000000
 145         0.00000000
 146         0.00000000
 147         0.00000000
 148         0.00000000
 149         0.00000000
 150         0.00000000
 151         0.00000000
 152         0.00000000
 153         0.00000000
 154         0.00000000
 155         0.00000000
 156         0.00000000
 157         0.00000000
 158         0.00000000
 159         0.00000000
 160         0.00000000
 161         0.00000000
 162         0.00000000
 163         0.00000000
 164         0.00000000
 165         0.00000000
 166         0.00000000
Sym=     5a
Ene=     0.0000
Spin= Alpha
Occup=    0.00000
   1         0.00000000
   2         0.00000000
   3         0.00000000
   4         0.00000000
   5         0.00000000
   6         0.00000000
   7         0.00000000
   8         0.00000000
   9         0.00000000
  10         0.00000000
  11         0.00000000
  12         0.00000000
  13         0.00000000
  14         0.00000000
  15         0.00000000
  16         0.03848248
  17        -0.25656144
  18        -0.00456277
  19         0.32360905
  20         0.00001182
  21        -0.18842384
  22        -0.00434377
  23         0.16762204
  24         0.00000612
  25         0.00357674
  26        -0.03583232
  27         0.00907678
  28         0.00031927
  29         0.00000005
  30        -0.00000186
  31         0.00000000
  32         0.00000000
  33         0.00000000
  34         0.00000000
  35         0.00000000
  36         0.00000000
  37         0.00000000
  38         0.00000000
  39         0.00000000
  40         0.00000000
  41         0.00000000
  42         0.00000000
  43         0.00000000
  44         0.00000000
  45         0.00000000
  46         0.00000000
  47         0.00000000
  48         0.00000000
  49         0.00000000
  50         0.00000000
  51         0.00000000
  52         0.00000000
  53         0.00000000
  54         0.00000000
  55         0.00000000
  56         0.00000000
  57         0.00000000
  58         0.00000000
  59         0.00000000
  60         0.00000000
  61         0.00000000
  62         0.00000000
  63         0.00000000
  64         0.00000000
  65         0.00000000
  66         0.00000000
  67         0.00000000
  68         0.00000000
  69         0.00000000
  70         0.00000000
  71         0.00000000
  72         0.00000000
  73         0.00000000
  74         0.00000000
  75         0.00000000
  76         0.00000000
  77         0.00000000
  78         0.00000000
  79         0.00000000
  80         0.00000000
  81         0.00000000
  82         0.00000000
  83         0.00000000
  84         0.00000000
  85         0.00000000
  86         0.00000000
  87         0.00000000
  88         0.00000000
  89         0.00000000
  90         0.00000000
  91         0.00000000
  92         0.00000000
  93         0.00000000
  94         0.00000000
  95         0.00000000
  96         0.00000000
  97         0.00000000
  98         0.00000000
  99         0.00000000
 100         0.00000000
 101         0.00000000
 102         0.00000000
 103         0.00000000
 104         0.00000000
 105         0.00000000
 106         0.00000000
 107         0.00000000
 108         0.00000000
 109         0.00000000
 110         0.00000000
 111         0.00000000
 112         0.00000000
 113         0.00000000
 114         0.00000000
 115         0.00000000
 116         0.00000000
 117         0.00000000
 118         0.00000000
 119         0.00000000
 120         0.00000000
 121         0.00000000
 122         0.00000000
 123         0.00000000
 124         0.00000000
 125         0.00000000
 126         0.00000000
 127         0.00000000
 128         0.00000000
 129         0.00000000
 130         0.00000000
 131         0.00000000
 132         0.00000000
 133         0.00000000
 134         0.00000000
 135         0.00000000
 136         0.00000000
 137         0.00000000
 138         0.00000000
 139         0.00000000
 140         0.00000000
 141         0.00000000
 142         0.00000000
 143         0.00000000
 144         0.00000000
 145         0.00000000
 146         0.00000000
 147         0.00000000
 148         0.00000000
 149         0.00000000
 150         0.00000000
 151         0.00000000
 152         0.00000000
 153        -0.30693084
 154        -0.20017842
 155         0.00000000
 156         0.00000000
 157         0.00000000
 158         0.00000000
 159         0.00000000
 160         0.00000000
 161         0.00000000
 162         0.00000000
 163         0.00000000
 164         0.00000000
 165         0.00000000
 166         0.00000000
Sym=     6a
Ene=     0.0000
Spin= Alpha
Occup=    0.00000
   1         0.00000000
   2         0.00000000
   3         0.00000000
   4         0.00000000
   5         0.00000000
   6         0.00000000
   7         0.00000000
   8         0.00000000
   9         0.00000000
  10         0.00000000
  11         0.00000000
  12         0.00000000
  13         0.00000000
  14         0.00000000
  15         0.00000000
  16         0.00000000
  17         0.00000000
  18         0.00000000
  19         0.00000000
  20         0.00000000
  21         0.00000000
  22         0.00000000
  23         0.00000000
  24         0.00000000
  25         0.00000000
  26         0.00000000
  27         0.00000000
  28         0.00000000
  29         0.00000000
  30         0.00000000