HF file generated by AutoMR of MOKIT
SP        RHF                                                         6-31G(d)
Number of atoms                            I               18
Info1-9                                    I   N=           9
          28          27           0           0           0         110
           1           1           2
Full Title                                 C   N=           3
HF file generated by AutoMR of MOKIT
Route                                      C   N=           6
#p scf(xqc,maxcycle=512) nosymm int(nobasistransform) RHF/6-
31G* 6D 10F
Charge                                     I                0
Multiplicity                               I                1
Number of electrons                        I               68
Number of alpha electrons                  I               34
Number of beta electrons                   I               34
Number of basis functions                  I              166
Number of independent functions            I              166
Number of point charges in /Mol/           I                0
Number of translation vectors              I                0
Atomic numbers                             I   N=          18
           6           6           6           6           6           6
           6           6           6           6           1           1
           1           1           1           1           1           1
Nuclear charges                            R   N=          18
  6.00000000E+00  6.00000000E+00  6.00000000E+00  6.00000000E+00  6.00000000E+00
  6.00000000E+00  6.00000000E+00  6.00000000E+00  6.00000000E+00  6.00000000E+00
  1.00000000E+00  1.00000000E+00  1.00000000E+00  1.00000000E+00  1.00000000E+00
  1.00000000E+00  1.00000000E+00  1.00000000E+00
Current cartesian coordinates              R   N=          54
 -6.81671660E+00 -1.33895435E+00  5.87723722E-04 -4.57079309E+00 -2.65014793E+00
  5.32808281E-04 -2.21862434E+00 -1.35454775E+00  5.72605913E-04  1.32973357E-01
 -2.64960212E+00  5.17898342E-04  2.38033444E+00 -1.33884711E+00  5.58546351E-04
  2.38033191E+00  1.33885161E+00  6.56282986E-04  1.32968368E-01  2.64960237E+00
  7.11198427E-04 -2.21862691E+00  1.35454357E+00  6.71381898E-04 -4.57079810E+00
  2.65013929E+00  7.26032777E-04 -6.81671914E+00  1.33894148E+00  6.85403665E-04
 -8.60188331E+00 -2.35360956E+00  5.56486549E-04 -4.56483662E+00 -4.70542999E+00
  4.57823948E-04  1.27675869E-01 -4.70492192E+00  4.42876215E-04  4.16471638E+00
 -2.35444703E+00  5.15895232E-04  4.16471192E+00  2.35445489E+00  6.87539056E-04
  1.27666987E-01  4.70492215E+00  7.86126068E-04 -4.56484548E+00  4.70542138E+00
  8.00998212E-04 -8.60188775E+00  2.35359332E+00  7.27979195E-04
Number of symbols in /Mol/                 I                0
Force Field                                I                0
Atom Types                                 C   N=          18




Int Atom Types                             I   N=          18
           0           0           0           0           0           0
           0           0           0           0           0           0
           0           0           0           0           0           0
MM charges                                 R   N=          18
  0.00000000E+00  0.00000000E+00  0.00000000E+00  0.00000000E+00  0.00000000E+00
  0.00000000E+00  0.00000000E+00  0.00000000E+00  0.00000000E+00  0.00000000E+00
  0.00000000E+00  0.00000000E+00  0.00000000E+00  0.00000000E+00  0.00000000E+00
  0.00000000E+00  0.00000000E+00  0.00000000E+00
Integer atomic weights                     I   N=          18
          12          12          12          12          12          12
          12          12          12          12           1           1
           1           1           1           1           1           1
Real atomic weights                        R   N=          18
  1.20000000E+01  1.20000000E+01  1.20000000E+01  1.20000000E+01  1.20000000E+01
  1.20000000E+01  1.20000000E+01  1.20000000E+01  1.20000000E+01  1.20000000E+01
  1.00782504E+00  1.00782504E+00  1.00782504E+00  1.00782504E+00  1.00782504E+00
  1.00782504E+00  1.00782504E+00  1.00782504E+00
Atom fragment info                         I   N=          18
           0           0           0           0           0           0
           0           0           0           0           0           0
           0           0           0           0           0           0
Atom residue num                           I   N=          18
           0           0           0           0           0           0
           0           0           0           0           0           0
           0           0           0           0           0           0
Nuclear spins                              I   N=          18
           0           0           0           0           0           0
           0           0           0           0           1           1
           1           1           1           1           1           1
Nuclear ZEff                               R   N=          18
 -3.60000000E+00 -3.60000000E+00 -3.60000000E+00 -3.60000000E+00 -3.60000000E+00
 -3.60000000E+00 -3.60000000E+00 -3.60000000E+00 -3.60000000E+00 -3.60000000E+00
 -1.00000000E+00 -1.00000000E+00 -1.00000000E+00 -1.00000000E+00 -1.00000000E+00
 -1.00000000E+00 -1.00000000E+00 -1.00000000E+00
Nuclear ZNuc                               R   N=          18
  6.00000000E+00  6.00000000E+00  6.00000000E+00  6.00000000E+00  6.00000000E+00
  6.00000000E+00  6.00000000E+00  6.00000000E+00  6.00000000E+00  6.00000000E+00
  1.00000000E+00  1.00000000E+00  1.00000000E+00  1.00000000E+00  1.00000000E+00
  1.00000000E+00  1.00000000E+00  1.00000000E+00
Nuclear QMom                               R   N=          18
  0.00000000E+00  0.00000000E+00  0.00000000E+00  0.00000000E+00  0.00000000E+00
  0.00000000E+00  0.00000000E+00  0.00000000E+00  0.00000000E+00  0.00000000E+00
  0.00000000E+00  0.00000000E+00  0.00000000E+00  0.00000000E+00  0.00000000E+00
  0.00000000E+00  0.00000000E+00  0.00000000E+00
Nuclear GFac                               R   N=          18
  0.00000000E+00  0.00000000E+00  0.00000000E+00  0.00000000E+00  0.00000000E+00
  0.00000000E+00  0.00000000E+00  0.00000000E+00  0.00000000E+00  0.00000000E+00
  2.79284600E+00  2.79284600E+00  2.79284600E+00  2.79284600E+00  2.79284600E+00
  2.79284600E+00  2.79284600E+00  2.79284600E+00
MicOpt                                     I   N=          18
          -1          -1          -1          -1          -1          -1
          -1          -1          -1          -1          -1          -1
          -1          -1          -1          -1          -1          -1
Number of residues                         I                0
Number of secondary structures             I                0
Number of contracted shells                I               56
Number of primitive shells                 I              142
Pure/Cartesian d shells                    I                1
Pure/Cartesian f shells                    I                1
Highest angular momentum                   I                2
Largest degree of contraction              I                6
Shell types                                I   N=          56
           0          -1          -1           2           0          -1
          -1           2           0          -1          -1           2
           0          -1          -1           2           0          -1
          -1           2           0          -1          -1           2
           0          -1          -1           2           0          -1
          -1           2           0          -1          -1           2
           0          -1          -1           2           0           0
           0           0           0           0           0           0
           0           0           0           0           0           0
           0           0
Number of primitives per shell             I   N=          56
           6           3           1           1           6           3
           1           1           6           3           1           1
           6           3           1           1           6           3
           1           1           6           3           1           1
           6           3           1           1           6           3
           1           1           6           3           1           1
           6           3           1           1           3           1
           3           1           3           1           3           1
           3           1           3           1           3           1
           3           1
Shell to atom map                          I   N=          56
           1           1           1           1           2           2
           2           2           3           3           3           3
           4           4           4           4           5           5
           5           5           6           6           6           6
           7           7           7           7           8           8
           8           8           9           9           9           9
          10          10          10          10          11          11
          12          12          13          13          14          14
          15          15          16          16          17          17
          18          18
Primitive exponents                        R   N=         142
  3.04752488E+03  4.57369518E+02  1.03948685E+02  2.92101553E+01  9.28666296E+00
  3.16392696E+00  7.86827235E+00  1.88128854E+00  5.44249258E-01  1.68714478E-01
  8.00000000E-01  3.04752488E+03  4.57369518E+02  1.03948685E+02  2.92101553E+01
  9.28666296E+00  3.16392696E+00  7.86827235E+00  1.88128854E+00  5.44249258E-01
  1.68714478E-01  8.00000000E-01  3.04752488E+03  4.57369518E+02  1.03948685E+02
  2.92101553E+01  9.28666296E+00  3.16392696E+00  7.86827235E+00  1.88128854E+00
  5.44249258E-01  1.68714478E-01  8.00000000E-01  3.04752488E+03  4.57369518E+02
  1.03948685E+02  2.92101553E+01  9.28666296E+00  3.16392696E+00  7.86827235E+00
  1.88128854E+00  5.44249258E-01  1.68714478E-01  8.00000000E-01  3.04752488E+03
  4.57369518E+02  1.03948685E+02  2.92101553E+01  9.28666296E+00  3.16392696E+00
  7.86827235E+00  1.88128854E+00  5.44249258E-01  1.68714478E-01  8.00000000E-01
  3.04752488E+03  4.57369518E+02  1.03948685E+02  2.92101553E+01  9.28666296E+00
  3.16392696E+00  7.86827235E+00  1.88128854E+00  5.44249258E-01  1.68714478E-01
  8.00000000E-01  3.04752488E+03  4.57369518E+02  1.03948685E+02  2.92101553E+01
  9.28666296E+00  3.16392696E+00  7.86827235E+00  1.88128854E+00  5.44249258E-01
  1.68714478E-01  8.00000000E-01  3.04752488E+03  4.57369518E+02  1.03948685E+02
  2.92101553E+01  9.28666296E+00  3.16392696E+00  7.86827235E+00  1.88128854E+00
  5.44249258E-01  1.68714478E-01  8.00000000E-01  3.04752488E+03  4.57369518E+02
  1.03948685E+02  2.92101553E+01  9.28666296E+00  3.16392696E+00  7.86827235E+00
  1.88128854E+00  5.44249258E-01  1.68714478E-01  8.00000000E-01  3.04752488E+03
  4.57369518E+02  1.03948685E+02  2.92101553E+01  9.28666296E+00  3.16392696E+00
  7.86827235E+00  1.88128854E+00  5.44249258E-01  1.68714478E-01  8.00000000E-01
  1.87311370E+01  2.82539436E+00  6.40121692E-01  1.61277759E-01  1.87311370E+01
  2.82539436E+00  6.40121692E-01  1.61277759E-01  1.87311370E+01  2.82539436E+00
  6.40121692E-01  1.61277759E-01  1.87311370E+01  2.82539436E+00  6.40121692E-01
  1.61277759E-01  1.87311370E+01  2.82539436E+00  6.40121692E-01  1.61277759E-01
  1.87311370E+01  2.82539436E+00  6.40121692E-01  1.61277759E-01  1.87311370E+01
  2.82539436E+00  6.40121692E-01  1.61277759E-01  1.87311370E+01  2.82539436E+00
  6.40121692E-01  1.61277759E-01
Contraction coefficients                   R   N=         142
  1.83473713E-03  1.40373228E-02  6.88426223E-02  2.32184443E-01  4.67941348E-01
  3.62311985E-01 -1.19332420E-01 -1.60854152E-01  1.14345644E+00  1.00000000E+00
  1.00000000E+00  1.83473713E-03  1.40373228E-02  6.88426223E-02  2.32184443E-01
  4.67941348E-01  3.62311985E-01 -1.19332420E-01 -1.60854152E-01  1.14345644E+00
  1.00000000E+00  1.00000000E+00  1.83473713E-03  1.40373228E-02  6.88426223E-02
  2.32184443E-01  4.67941348E-01  3.62311985E-01 -1.19332420E-01 -1.60854152E-01
  1.14345644E+00  1.00000000E+00  1.00000000E+00  1.83473713E-03  1.40373228E-02
  6.88426223E-02  2.32184443E-01  4.67941348E-01  3.62311985E-01 -1.19332420E-01
 -1.60854152E-01  1.14345644E+00  1.00000000E+00  1.00000000E+00  1.83473713E-03
  1.40373228E-02  6.88426223E-02  2.32184443E-01  4.67941348E-01  3.62311985E-01
 -1.19332420E-01 -1.60854152E-01  1.14345644E+00  1.00000000E+00  1.00000000E+00
  1.83473713E-03  1.40373228E-02  6.88426223E-02  2.32184443E-01  4.67941348E-01
  3.62311985E-01 -1.19332420E-01 -1.60854152E-01  1.14345644E+00  1.00000000E+00
  1.00000000E+00  1.83473713E-03  1.40373228E-02  6.88426223E-02  2.32184443E-01
  4.67941348E-01  3.62311985E-01 -1.19332420E-01 -1.60854152E-01  1.14345644E+00
  1.00000000E+00  1.00000000E+00  1.83473713E-03  1.40373228E-02  6.88426223E-02
  2.32184443E-01  4.67941348E-01  3.62311985E-01 -1.19332420E-01 -1.60854152E-01
  1.14345644E+00  1.00000000E+00  1.00000000E+00  1.83473713E-03  1.40373228E-02
  6.88426223E-02  2.32184443E-01  4.67941348E-01  3.62311985E-01 -1.19332420E-01
 -1.60854152E-01  1.14345644E+00  1.00000000E+00  1.00000000E+00  1.83473713E-03
  1.40373228E-02  6.88426223E-02  2.32184443E-01  4.67941348E-01  3.62311985E-01
 -1.19332420E-01 -1.60854152E-01  1.14345644E+00  1.00000000E+00  1.00000000E+00
  3.34946043E-02  2.34726953E-01  8.13757326E-01  1.00000000E+00  3.34946043E-02
  2.34726953E-01  8.13757326E-01  1.00000000E+00  3.34946043E-02  2.34726953E-01
  8.13757326E-01  1.00000000E+00  3.34946043E-02  2.34726953E-01  8.13757326E-01
  1.00000000E+00  3.34946043E-02  2.34726953E-01  8.13757326E-01  1.00000000E+00
  3.34946043E-02  2.34726953E-01  8.13757326E-01  1.00000000E+00  3.34946043E-02
  2.34726953E-01  8.13757326E-01  1.00000000E+00  3.34946043E-02  2.34726953E-01
  8.13757326E-01  1.00000000E+00
P(S=P) Contraction coefficients            R   N=         142
  0.00000000E+00  0.00000000E+00  0.00000000E+00  0.00000000E+00  0.00000000E+00
  0.00000000E+00  6.89990666E-02  3.16423961E-01  7.44308291E-01  1.00000000E+00
  0.00000000E+00  0.00000000E+00  0.00000000E+00  0.00000000E+00  0.00000000E+00
  0.00000000E+00  0.00000000E+00  6.89990666E-02  3.16423961E-01  7.44308291E-01
  1.00000000E+00  0.00000000E+00  0.00000000E+00  0.00000000E+00  0.00000000E+00
  0.00000000E+00  0.00000000E+00  0.00000000E+00  6.89990666E-02  3.16423961E-01
  7.44308291E-01  1.00000000E+00  0.00000000E+00  0.00000000E+00  0.00000000E+00
  0.00000000E+00  0.00000000E+00  0.00000000E+00  0.00000000E+00  6.89990666E-02
  3.16423961E-01  7.44308291E-01  1.00000000E+00  0.00000000E+00  0.00000000E+00
  0.00000000E+00  0.00000000E+00  0.00000000E+00  0.00000000E+00  0.00000000E+00
  6.89990666E-02  3.16423961E-01  7.44308291E-01  1.00000000E+00  0.00000000E+00
  0.00000000E+00  0.00000000E+00  0.00000000E+00  0.00000000E+00  0.00000000E+00
  0.00000000E+00  6.89990666E-02  3.16423961E-01  7.44308291E-01  1.00000000E+00
  0.00000000E+00  0.00000000E+00  0.00000000E+00  0.00000000E+00  0.00000000E+00
  0.00000000E+00  0.00000000E+00  6.89990666E-02  3.16423961E-01  7.44308291E-01
  1.00000000E+00  0.00000000E+00  0.00000000E+00  0.00000000E+00  0.00000000E+00
  0.00000000E+00  0.00000000E+00  0.00000000E+00  6.89990666E-02  3.16423961E-01
  7.44308291E-01  1.00000000E+00  0.00000000E+00  0.00000000E+00  0.00000000E+00
  0.00000000E+00  0.00000000E+00  0.00000000E+00  0.00000000E+00  6.89990666E-02
  3.16423961E-01  7.44308291E-01  1.00000000E+00  0.00000000E+00  0.00000000E+00
  0.00000000E+00  0.00000000E+00  0.00000000E+00  0.00000000E+00  0.00000000E+00
  6.89990666E-02  3.16423961E-01  7.44308291E-01  1.00000000E+00  0.00000000E+00
  0.00000000E+00  0.00000000E+00  0.00000000E+00  0.00000000E+00  0.00000000E+00
  0.00000000E+00  0.00000000E+00  0.00000000E+00  0.00000000E+00  0.00000000E+00
  0.00000000E+00  0.00000000E+00  0.00000000E+00  0.00000000E+00  0.00000000E+00
  0.00000000E+00  0.00000000E+00  0.00000000E+00  0.00000000E+00  0.00000000E+00
  0.00000000E+00  0.00000000E+00  0.00000000E+00  0.00000000E+00  0.00000000E+00
  0.00000000E+00  0.00000000E+00  0.00000000E+00  0.00000000E+00  0.00000000E+00
  0.00000000E+00  0.00000000E+00
Coordinates of each shell                  R   N=         168
 -6.81671660E+00 -1.33895435E+00  5.87723722E-04 -6.81671660E+00 -1.33895435E+00
  5.87723722E-04 -6.81671660E+00 -1.33895435E+00  5.87723722E-04 -6.81671660E+00
 -1.33895435E+00  5.87723722E-04 -4.57079309E+00 -2.65014793E+00  5.32808281E-04
 -4.57079309E+00 -2.65014793E+00  5.32808281E-04 -4.57079309E+00 -2.65014793E+00
  5.32808281E-04 -4.57079309E+00 -2.65014793E+00  5.32808281E-04 -2.21862434E+00
 -1.35454775E+00  5.72605913E-04 -2.21862434E+00 -1.35454775E+00  5.72605913E-04
 -2.21862434E+00 -1.35454775E+00  5.72605913E-04 -2.21862434E+00 -1.35454775E+00
  5.72605913E-04  1.32973357E-01 -2.64960212E+00  5.17898342E-04  1.32973357E-01
 -2.64960212E+00  5.17898342E-04  1.32973357E-01 -2.64960212E+00  5.17898342E-04
  1.32973357E-01 -2.64960212E+00  5.17898342E-04  2.38033444E+00 -1.33884711E+00
  5.58546351E-04  2.38033444E+00 -1.33884711E+00  5.58546351E-04  2.38033444E+00
 -1.33884711E+00  5.58546351E-04  2.38033444E+00 -1.33884711E+00  5.58546351E-04
  2.38033191E+00  1.33885161E+00  6.56282986E-04  2.38033191E+00  1.33885161E+00
  6.56282986E-04  2.38033191E+00  1.33885161E+00  6.56282986E-04  2.38033191E+00
  1.33885161E+00  6.56282986E-04  1.32968368E-01  2.64960237E+00  7.11198427E-04
  1.32968368E-01  2.64960237E+00  7.11198427E-04  1.32968368E-01  2.64960237E+00
  7.11198427E-04  1.32968368E-01  2.64960237E+00  7.11198427E-04 -2.21862691E+00
  1.35454357E+00  6.71381898E-04 -2.21862691E+00  1.35454357E+00  6.71381898E-04
 -2.21862691E+00  1.35454357E+00  6.71381898E-04 -2.21862691E+00  1.35454357E+00
  6.71381898E-04 -4.57079810E+00  2.65013929E+00  7.26032777E-04 -4.57079810E+00
  2.65013929E+00  7.26032777E-04 -4.57079810E+00  2.65013929E+00  7.26032777E-04
 -4.57079810E+00  2.65013929E+00  7.26032777E-04 -6.81671914E+00  1.33894148E+00
  6.85403665E-04 -6.81671914E+00  1.33894148E+00  6.85403665E-04 -6.81671914E+00
  1.33894148E+00  6.85403665E-04 -6.81671914E+00  1.33894148E+00  6.85403665E-04
 -8.60188331E+00 -2.35360956E+00  5.56486549E-04 -8.60188331E+00 -2.35360956E+00
  5.56486549E-04 -4.56483662E+00 -4.70542999E+00  4.57823948E-04 -4.56483662E+00
 -4.70542999E+00  4.57823948E-04  1.27675869E-01 -4.70492192E+00  4.42876215E-04
  1.27675869E-01 -4.70492192E+00  4.42876215E-04  4.16471638E+00 -2.35444703E+00
  5.15895232E-04  4.16471638E+00 -2.35444703E+00  5.15895232E-04  4.16471192E+00
  2.35445489E+00  6.87539056E-04  4.16471192E+00  2.35445489E+00  6.87539056E-04
  1.27666987E-01  4.70492215E+00  7.86126068E-04  1.27666987E-01  4.70492215E+00
  7.86126068E-04 -4.56484548E+00  4.70542138E+00  8.00998212E-04 -4.56484548E+00
  4.70542138E+00  8.00998212E-04 -8.60188775E+00  2.35359332E+00  7.27979195E-04
 -8.60188775E+00  2.35359332E+00  7.27979195E-04
Num ILSW                                   I              100
ILSW                                       I   N=         100
           0           1           0           0           2           0
           0           0           0           0           0          -1
           5           0           0           1           0           0
           0           0           0           0           0           0
           1           1           0           0           0           0
           0           0      100000           0          -1           0
           0           0           0           0           0           0
           0           0           0           1           0           0
           0 -2000000000           1           0           0           0
           0           0           4          52           0           0
           0           0           0           0           0           0
           0           0           0          18           0           1
           0           0           0           0           0           0
           0           0           0           0           0           0
           0           0           0           0           0           0
           0           0           0           0           0           0
           0           0           0           0
Num RLSW                                   I               52
RLSW                                       R   N=          52
  1.00000000E+00  1.00000000E+00  1.00000000E+00  1.00000000E+00  1.00000000E+00
  0.00000000E+00  0.00000000E+00  1.00000000E+00  0.00000000E+00  0.00000000E+00
  0.00000000E+00  0.00000000E+00  1.00000000E+00  0.00000000E+00  0.00000000E+00
  0.00000000E+00  0.00000000E+00  1.00000000E+00  0.00000000E+00  0.00000000E+00
  0.00000000E+00  0.00000000E+00  1.00000000E+00  0.00000000E+00  0.00000000E+00
  0.00000000E+00  0.00000000E+00  1.00000000E+00  0.00000000E+00  0.00000000E+00
  0.00000000E+00  0.00000000E+00  1.00000000E+00  0.00000000E+00  0.00000000E+00
  0.00000000E+00  0.00000000E+00  0.00000000E+00  1.00000000E+00  1.00000000E+00
  0.00000000E+00  1.00000000E+00  0.00000000E+00  0.00000000E+00  0.00000000E+00
  0.00000000E+00  0.00000000E+00  0.00000000E+00  0.00000000E+00  0.00000000E+00
  0.00000000E+00  0.00000000E+00
MxBond                                     I                3
NBond                                      I   N=          18
           3           3           3           3           3           3
           3           3           3           3           1           1
           1           1           1           1           1           1
IBond                                      I   N=          54
           2          10          11           1           3          12
           2           4           8           3           5          13
           4           6          14           5           7          15
           6           8          16           3           7           9
           8          10          17           1           9          18
           1           0           0           2           0           0
           4           0           0           5           0           0
           6           0           0           7           0           0
           9           0           0          10           0           0
RBond                                      R   N=          54
  1.50000000E+00  1.50000000E+00  1.00000000E+00  1.50000000E+00  1.50000000E+00
  1.00000000E+00  1.50000000E+00  1.50000000E+00  1.00000000E+00  1.50000000E+00
  1.50000000E+00  1.00000000E+00  1.50000000E+00  1.50000000E+00  1.00000000E+00
  1.50000000E+00  1.50000000E+00  1.00000000E+00  1.50000000E+00  1.50000000E+00
  1.00000000E+00  1.00000000E+00  1.50000000E+00  1.50000000E+00  1.50000000E+00
  1.50000000E+00  1.00000000E+00  1.50000000E+00  1.50000000E+00  1.00000000E+00
  1.00000000E+00  0.00000000E+00  0.00000000E+00  1.00000000E+00  0.00000000E+00
  0.00000000E+00  1.00000000E+00  0.00000000E+00  0.00000000E+00  1.00000000E+00
  0.00000000E+00  0.00000000E+00  1.00000000E+00  0.00000000E+00  0.00000000E+00
  1.00000000E+00  0.00000000E+00  0.00000000E+00  1.00000000E+00  0.00000000E+00
  0.00000000E+00  1.00000000E+00  0.00000000E+00  0.00000000E+00
Virial Ratio                               R      2.001961092905327E+00
SCF Energy                                 R     -3.833526292219411E+02
Total Energy                               R     -3.833526292219411E+02
RMS Density                                R      1.820495588701532E-09
Job Status                                 I                1
Nuclear derivative order                   I                0
External E-field                           R   N=          35
  0.00000000E+00  0.00000000E+00  0.00000000E+00  0.00000000E+00  0.00000000E+00
  0.00000000E+00  0.00000000E+00  0.00000000E+00  0.00000000E+00  0.00000000E+00
  0.00000000E+00  0.00000000E+00  0.00000000E+00  0.00000000E+00  0.00000000E+00
  0.00000000E+00  0.00000000E+00  0.00000000E+00  0.00000000E+00  0.00000000E+00
  0.00000000E+00  0.00000000E+00  0.00000000E+00  0.00000000E+00  0.00000000E+00
  0.00000000E+00  0.00000000E+00  0.00000000E+00  0.00000000E+00  0.00000000E+00
  0.00000000E+00  0.00000000E+00  0.00000000E+00  0.00000000E+00  0.00000000E+00
IOpCl                                      I                0
IROHF                                      I                0
Alpha Orbital Energies                     R   N=         166
 -1.12426551E+01 -1.12416875E+01 -1.12365647E+01 -1.12365253E+01 -1.12361507E+01
 -1.12360683E+01 -1.12352283E+01 -1.12351748E+01 -1.12346364E+01 -1.12345979E+01
 -1.16894198E+00 -1.10264826E+00 -1.04427379E+00 -1.00227819E+00 -9.75301061E-01
 -8.48376418E-01 -8.30234039E-01 -8.05213100E-01 -7.02209602E-01 -6.92775274E-01
 -6.71097568E-01 -6.19020304E-01 -6.04581440E-01 -5.77981624E-01 -5.77973050E-01
 -5.59686967E-01 -5.25859202E-01 -5.19372648E-01 -4.83624911E-01 -4.71661528E-01
 -4.41540960E-01 -3.79258156E-01 -3.12519068E-01 -2.82530257E-01  9.72010872E-02
  1.28883217E-01  1.90776861E-01  2.37431534E-01  2.57820413E-01  2.64151710E-01
  2.86838414E-01  3.10266507E-01  3.16095256E-01  3.20926669E-01  3.36979769E-01
  3.56188470E-01  4.14566809E-01  4.15166368E-01  4.60518670E-01  4.88862850E-01
  4.90913650E-01  4.94597234E-01  5.08939704E-01  5.44619371E-01  6.66305473E-01
  7.22223463E-01  7.28512432E-01  7.40251393E-01  7.41862455E-01  7.46430686E-01
  7.54374020E-01  7.78172648E-01  7.92028750E-01  8.03132483E-01  8.12099042E-01
  8.26374845E-01  8.43436098E-01  8.48090392E-01  8.51874442E-01  8.52998693E-01
  8.57938000E-01  8.60577690E-01  8.65258162E-01  9.21984251E-01  9.35672017E-01
  9.35858104E-01  1.00494975E+00  1.08339235E+00  1.09126074E+00  1.10034377E+00
  1.10322306E+00  1.10708381E+00  1.12459747E+00  1.13021928E+00  1.14918650E+00
  1.15737848E+00  1.18450314E+00  1.19819822E+00  1.20568321E+00  1.24427589E+00
  1.25004787E+00  1.27937348E+00  1.27951878E+00  1.29954898E+00  1.34461959E+00
  1.40144129E+00  1.45164715E+00  1.45897850E+00  1.49797846E+00  1.51135477E+00
  1.53234927E+00  1.56682351E+00  1.66051297E+00  1.68358061E+00  1.70171786E+00
  1.71971360E+00  1.73052691E+00  1.75457612E+00  1.76843223E+00  1.77325595E+00
  1.78006662E+00  1.79045954E+00  1.79512336E+00  2.01309105E+00  2.07019615E+00
  2.07635218E+00  2.15231607E+00  2.17419936E+00  2.17671419E+00  2.21163866E+00
  2.24617850E+00  2.26303653E+00  2.26946150E+00  2.27451600E+00  2.30088725E+00
  2.35427563E+00  2.37650372E+00  2.44376625E+00  2.46533428E+00  2.48055096E+00
  2.51680573E+00  2.52224280E+00  2.52526972E+00  2.60129520E+00  2.60534154E+00
  2.62684449E+00  2.65828317E+00  2.66387447E+00  2.70781018E+00  2.74606579E+00
  2.94726812E+00  2.95892928E+00  2.96267127E+00  2.96504186E+00  2.98436732E+00
  3.01603302E+00  3.05910623E+00  3.09622375E+00  3.13070628E+00  3.19670543E+00
  3.20144133E+00  3.24522850E+00  3.30768126E+00  3.45570547E+00  3.73020162E+00
  3.85698108E+00  4.50816764E+00  4.51938690E+00  4.54312836E+00  4.54551381E+00
  4.57438191E+00  4.68530909E+00  4.77474739E+00  4.82454190E+00  4.94303038E+00
  5.23062228E+00
Alpha MO coefficients                      R   N=       27556
  3.68036571E-03 -1.92984788E-05 -3.58760159E-05 -1.90127771E-05 -5.78612222E-10
  7.00290259E-05  1.34847775E-04 -4.14553457E-06 -5.88649207E-10  4.97916944E-05
  1.82922056E-06 -4.84752152E-05 -9.80266730E-06 -7.16193062E-10  2.14750811E-09
  5.12017603E-02  1.32475806E-03 -9.48529047E-05 -8.92248051E-05 -2.95681300E-09
  1.69608866E-03  8.19817935E-04  3.66933223E-04  1.07813946E-08 -4.01503145E-04
 -2.78468548E-04 -2.05894868E-04 -8.97641786E-05 -2.56141451E-09 -2.77355283E-09
  7.00093255E-01  1.94123155E-02  1.24357966E-08 -8.07965234E-05 -2.94696525E-09
 -6.53477650E-03  3.96608193E-08  8.15829599E-04  2.97823519E-08 -1.23760770E-03
 -1.51658928E-03 -1.68608961E-03 -2.93314277E-07 -1.65720365E-09  7.14256873E-09
  5.13166338E-02  1.32721301E-03  9.51447220E-05 -8.91936917E-05 -3.55358182E-09
  1.69594858E-03 -8.20601213E-04  3.66838514E-04  1.59721416E-08 -4.01288432E-04
 -2.78499359E-04 -2.06028419E-04  8.93719466E-05  3.97805516E-09 -3.33764391E-09
  3.69927758E-03 -1.85645225E-05  3.59338848E-05 -1.89500394E-05 -8.02668514E-10
  7.03880922E-05 -1.34787258E-04 -4.29789161E-06  2.68444051E-10  4.95844405E-05
  1.66886790E-06 -4.84878500E-05  9.73779302E-06 -4.95502872E-12  2.07997877E-09
  3.69927484E-03 -1.85646071E-05  3.59338510E-05  1.89501119E-05  5.76735132E-10
  7.03885225E-05 -1.34787468E-04  4.29748796E-06  5.86230955E-10  4.95844603E-05
  1.66884054E-06 -4.84878532E-05 -9.73768711E-06 -7.12052939E-10  2.14301301E-09
  5.13166113E-02  1.32721240E-03  9.51445258E-05  8.91938509E-05  2.95192305E-09
  1.69594782E-03 -8.20600351E-04 -3.66839709E-04 -1.07793380E-08 -4.01288000E-04
 -2.78499535E-04 -2.06028343E-04 -8.93721849E-05 -2.55060613E-09 -2.77184159E-09
  7.00093081E-01  1.94123107E-02  1.22710670E-08  8.07965458E-05  2.94479234E-09
 -6.53477298E-03  4.12668612E-08 -8.15830157E-04 -2.97617540E-08 -1.23760749E-03
 -1.51658912E-03 -1.68608924E-03  2.93899125E-07 -1.62205492E-09  7.13903170E-09
  5.12017470E-02  1.32475768E-03 -9.48530550E-05  8.92246109E-05  3.55533401E-09
  1.69608792E-03  8.19818499E-04 -3.66931366E-04 -1.59734076E-08 -4.01503308E-04
 -2.78468155E-04 -2.05894815E-04  8.97638694E-05  3.98602539E-09 -3.33644261E-09
  3.68036448E-03 -1.92985195E-05 -3.58760539E-05  1.90127132E-05  8.02397905E-10
  7.00294391E-05  1.34847971E-04  4.14566776E-06 -2.59126786E-10  4.97916470E-05