Title Card Required                                                     
SP        RB3LYP                                                      6-31G(d)            
Number of atoms                            I               18
Info1-9                                    I   N=           9
          26          26           0           0           0         110
           1          18        -502
Full Title                                 C   N=           2
Title Card Required     
Route                                      C   N=           3
#p b3lyp/6-31G* pop=saveNBO         
Charge                                     I                0
Multiplicity                               I                1
Number of electrons                        I               68
Number of alpha electrons                  I               34
Number of beta electrons                   I               34
Number of basis functions                  I              166
Number of independent functions            I              166
Number of point charges in /Mol/           I                0
Number of translation vectors              I                0
Atomic numbers                             I   N=          18
           6           6           6           6           6           6
           6           6           6           6           1           1
           1           1           1           1           1           1
Nuclear charges                            R   N=          18
  6.00000000E+00  6.00000000E+00  6.00000000E+00  6.00000000E+00  6.00000000E+00
  6.00000000E+00  6.00000000E+00  6.00000000E+00  6.00000000E+00  6.00000000E+00
  1.00000000E+00  1.00000000E+00  1.00000000E+00  1.00000000E+00  1.00000000E+00
  1.00000000E+00  1.00000000E+00  1.00000000E+00
Current cartesian coordinates              R   N=          54
  4.59814871E+00 -1.33894792E+00  3.42658758E-05  2.35222644E+00 -2.65014362E+00
  8.91813170E-05  5.64648483E-05 -1.35454566E+00  4.93780156E-05 -2.35154002E+00
 -2.64960224E+00  1.04095036E-04 -4.59890233E+00 -1.33884936E+00  6.34356883E-05
 -4.59890233E+00  1.33884936E+00 -3.42952777E-05 -2.35154002E+00  2.64960225E+00
 -8.92201675E-05  5.64700203E-05  1.35454566E+00 -4.93998586E-05  2.35222645E+00
  2.65014361E+00 -1.04054518E-04  4.59814872E+00  1.33894791E+00 -6.34159573E-05
  6.38331637E+00 -2.35360144E+00  6.54992692E-05  2.34627189E+00 -4.70542568E+00
  1.64158091E-04 -2.34624058E+00 -4.70492204E+00  1.79105824E-04 -6.38328332E+00
 -2.35445096E+00  1.06098145E-04 -6.38328331E+00  2.35445096E+00 -6.55418992E-05
 -2.34624058E+00  4.70492204E+00 -1.64136470E-04  2.34627189E+00  4.70542568E+00
 -1.79008615E-04  6.38331637E+00  2.35360143E+00 -1.05995266E-04
Number of symbols in /Mol/                 I                0
Force Field                                I                0
Atom Types                                 C   N=          18
                                                            
                                                            
                                                            
                                    
Int Atom Types                             I   N=          18
           0           0           0           0           0           0
           0           0           0           0           0           0
           0           0           0           0           0           0
MM charges                                 R   N=          18
  0.00000000E+00  0.00000000E+00  0.00000000E+00  0.00000000E+00  0.00000000E+00
  0.00000000E+00  0.00000000E+00  0.00000000E+00  0.00000000E+00  0.00000000E+00
  0.00000000E+00  0.00000000E+00  0.00000000E+00  0.00000000E+00  0.00000000E+00
  0.00000000E+00  0.00000000E+00  0.00000000E+00
Integer atomic weights                     I   N=          18
          12          12          12          12          12          12
          12          12          12          12           1           1
           1           1           1           1           1           1
Real atomic weights                        R   N=          18
  1.20000000E+01  1.20000000E+01  1.20000000E+01  1.20000000E+01  1.20000000E+01
  1.20000000E+01  1.20000000E+01  1.20000000E+01  1.20000000E+01  1.20000000E+01
  1.00782504E+00  1.00782504E+00  1.00782504E+00  1.00782504E+00  1.00782504E+00
  1.00782504E+00  1.00782504E+00  1.00782504E+00
Atom fragment info                         I   N=          18
           0           0           0           0           0           0
           0           0           0           0           0           0
           0           0           0           0           0           0
Atom residue num                           I   N=          18
           0           0           0           0           0           0
           0           0           0           0           0           0
           0           0           0           0           0           0
Nuclear spins                              I   N=          18
           0           0           0           0           0           0
           0           0           0           0           1           1
           1           1           1           1           1           1
Nuclear ZEff                               R   N=          18
 -3.60000000E+00 -3.60000000E+00 -3.60000000E+00 -3.60000000E+00 -3.60000000E+00
 -3.60000000E+00 -3.60000000E+00 -3.60000000E+00 -3.60000000E+00 -3.60000000E+00
 -1.00000000E+00 -1.00000000E+00 -1.00000000E+00 -1.00000000E+00 -1.00000000E+00
 -1.00000000E+00 -1.00000000E+00 -1.00000000E+00
Nuclear ZNuc                               R   N=          18
  6.00000000E+00  6.00000000E+00  6.00000000E+00  6.00000000E+00  6.00000000E+00
  6.00000000E+00  6.00000000E+00  6.00000000E+00  6.00000000E+00  6.00000000E+00
  1.00000000E+00  1.00000000E+00  1.00000000E+00  1.00000000E+00  1.00000000E+00
  1.00000000E+00  1.00000000E+00  1.00000000E+00
Nuclear QMom                               R   N=          18
  0.00000000E+00  0.00000000E+00  0.00000000E+00  0.00000000E+00  0.00000000E+00
  0.00000000E+00  0.00000000E+00  0.00000000E+00  0.00000000E+00  0.00000000E+00
  0.00000000E+00  0.00000000E+00  0.00000000E+00  0.00000000E+00  0.00000000E+00
  0.00000000E+00  0.00000000E+00  0.00000000E+00
Nuclear GFac                               R   N=          18
  0.00000000E+00  0.00000000E+00  0.00000000E+00  0.00000000E+00  0.00000000E+00
  0.00000000E+00  0.00000000E+00  0.00000000E+00  0.00000000E+00  0.00000000E+00
  2.79284600E+00  2.79284600E+00  2.79284600E+00  2.79284600E+00  2.79284600E+00
  2.79284600E+00  2.79284600E+00  2.79284600E+00
MicOpt                                     I   N=          18
          -1          -1          -1          -1          -1          -1
          -1          -1          -1          -1          -1          -1
          -1          -1          -1          -1          -1          -1
Number of residues                         I                0
Number of secondary structures             I                0
SymInf integers                            I   N=          26
           1           1           1           1           1           0
           0           0           0           0           0           0
           0           0           0           0           0           0
           0           0           0           0           0           0
           0           0
RotTr to input orientation                 R   N=          12
 -1.00000000E+00 -9.43270860E-07  0.00000000E+00 -9.43270860E-07  1.00000000E+00
 -0.00000000E+00  0.00000000E+00  0.00000000E+00 -1.00000000E+00 -2.21856916E+00
 -2.09478920E-06  6.21987708E-04
Number of contracted shells                I               56
Number of primitive shells                 I              142
Pure/Cartesian d shells                    I                1
Pure/Cartesian f shells                    I                0
Highest angular momentum                   I                2
Largest degree of contraction              I                6
Shell types                                I   N=          56
           0          -1          -1           2           0          -1
          -1           2           0          -1          -1           2
           0          -1          -1           2           0          -1
          -1           2           0          -1          -1           2
           0          -1          -1           2           0          -1
          -1           2           0          -1          -1           2
           0          -1          -1           2           0           0
           0           0           0           0           0           0
           0           0           0           0           0           0
           0           0
Number of primitives per shell             I   N=          56
           6           3           1           1           6           3
           1           1           6           3           1           1
           6           3           1           1           6           3
           1           1           6           3           1           1
           6           3           1           1           6           3
           1           1           6           3           1           1
           6           3           1           1           3           1
           3           1           3           1           3           1
           3           1           3           1           3           1
           3           1
Shell to atom map                          I   N=          56
           1           1           1           1           2           2
           2           2           3           3           3           3
           4           4           4           4           5           5
           5           5           6           6           6           6
           7           7           7           7           8           8
           8           8           9           9           9           9
          10          10          10          10          11          11
          12          12          13          13          14          14
          15          15          16          16          17          17
          18          18
Primitive exponents                        R   N=         142
  3.04752488E+03  4.57369518E+02  1.03948685E+02  2.92101553E+01  9.28666296E+00
  3.16392696E+00  7.86827235E+00  1.88128854E+00  5.44249258E-01  1.68714478E-01
  8.00000000E-01  3.04752488E+03  4.57369518E+02  1.03948685E+02  2.92101553E+01
  9.28666296E+00  3.16392696E+00  7.86827235E+00  1.88128854E+00  5.44249258E-01
  1.68714478E-01  8.00000000E-01  3.04752488E+03  4.57369518E+02  1.03948685E+02
  2.92101553E+01  9.28666296E+00  3.16392696E+00  7.86827235E+00  1.88128854E+00
  5.44249258E-01  1.68714478E-01  8.00000000E-01  3.04752488E+03  4.57369518E+02
  1.03948685E+02  2.92101553E+01  9.28666296E+00  3.16392696E+00  7.86827235E+00
  1.88128854E+00  5.44249258E-01  1.68714478E-01  8.00000000E-01  3.04752488E+03
  4.57369518E+02  1.03948685E+02  2.92101553E+01  9.28666296E+00  3.16392696E+00
  7.86827235E+00  1.88128854E+00  5.44249258E-01  1.68714478E-01  8.00000000E-01
  3.04752488E+03  4.57369518E+02  1.03948685E+02  2.92101553E+01  9.28666296E+00
  3.16392696E+00  7.86827235E+00  1.88128854E+00  5.44249258E-01  1.68714478E-01
  8.00000000E-01  3.04752488E+03  4.57369518E+02  1.03948685E+02  2.92101553E+01
  9.28666296E+00  3.16392696E+00  7.86827235E+00  1.88128854E+00  5.44249258E-01
  1.68714478E-01  8.00000000E-01  3.04752488E+03  4.57369518E+02  1.03948685E+02
  2.92101553E+01  9.28666296E+00  3.16392696E+00  7.86827235E+00  1.88128854E+00
  5.44249258E-01  1.68714478E-01  8.00000000E-01  3.04752488E+03  4.57369518E+02
  1.03948685E+02  2.92101553E+01  9.28666296E+00  3.16392696E+00  7.86827235E+00
  1.88128854E+00  5.44249258E-01  1.68714478E-01  8.00000000E-01  3.04752488E+03
  4.57369518E+02  1.03948685E+02  2.92101553E+01  9.28666296E+00  3.16392696E+00
  7.86827235E+00  1.88128854E+00  5.44249258E-01  1.68714478E-01  8.00000000E-01
  1.87311370E+01  2.82539436E+00  6.40121692E-01  1.61277759E-01  1.87311370E+01
  2.82539436E+00  6.40121692E-01  1.61277759E-01  1.87311370E+01  2.82539436E+00
  6.40121692E-01  1.61277759E-01  1.87311370E+01  2.82539436E+00  6.40121692E-01
  1.61277759E-01  1.87311370E+01  2.82539436E+00  6.40121692E-01  1.61277759E-01
  1.87311370E+01  2.82539436E+00  6.40121692E-01  1.61277759E-01  1.87311370E+01
  2.82539436E+00  6.40121692E-01  1.61277759E-01  1.87311370E+01  2.82539436E+00
  6.40121692E-01  1.61277759E-01
Contraction coefficients                   R   N=         142
  1.83473713E-03  1.40373228E-02  6.88426223E-02  2.32184443E-01  4.67941348E-01
  3.62311985E-01 -1.19332420E-01 -1.60854152E-01  1.14345644E+00  1.00000000E+00
  1.00000000E+00  1.83473713E-03  1.40373228E-02  6.88426223E-02  2.32184443E-01
  4.67941348E-01  3.62311985E-01 -1.19332420E-01 -1.60854152E-01  1.14345644E+00
  1.00000000E+00  1.00000000E+00  1.83473713E-03  1.40373228E-02  6.88426223E-02
  2.32184443E-01  4.67941348E-01  3.62311985E-01 -1.19332420E-01 -1.60854152E-01
  1.14345644E+00  1.00000000E+00  1.00000000E+00  1.83473713E-03  1.40373228E-02
  6.88426223E-02  2.32184443E-01  4.67941348E-01  3.62311985E-01 -1.19332420E-01
 -1.60854152E-01  1.14345644E+00  1.00000000E+00  1.00000000E+00  1.83473713E-03
  1.40373228E-02  6.88426223E-02  2.32184443E-01  4.67941348E-01  3.62311985E-01
 -1.19332420E-01 -1.60854152E-01  1.14345644E+00  1.00000000E+00  1.00000000E+00
  1.83473713E-03  1.40373228E-02  6.88426223E-02  2.32184443E-01  4.67941348E-01
  3.62311985E-01 -1.19332420E-01 -1.60854152E-01  1.14345644E+00  1.00000000E+00
  1.00000000E+00  1.83473713E-03  1.40373228E-02  6.88426223E-02  2.32184443E-01
  4.67941348E-01  3.62311985E-01 -1.19332420E-01 -1.60854152E-01  1.14345644E+00
  1.00000000E+00  1.00000000E+00  1.83473713E-03  1.40373228E-02  6.88426223E-02
  2.32184443E-01  4.67941348E-01  3.62311985E-01 -1.19332420E-01 -1.60854152E-01
  1.14345644E+00  1.00000000E+00  1.00000000E+00  1.83473713E-03  1.40373228E-02
  6.88426223E-02  2.32184443E-01  4.67941348E-01  3.62311985E-01 -1.19332420E-01
 -1.60854152E-01  1.14345644E+00  1.00000000E+00  1.00000000E+00  1.83473713E-03
  1.40373228E-02  6.88426223E-02  2.32184443E-01  4.67941348E-01  3.62311985E-01
 -1.19332420E-01 -1.60854152E-01  1.14345644E+00  1.00000000E+00  1.00000000E+00
  3.34946043E-02  2.34726953E-01  8.13757326E-01  1.00000000E+00  3.34946043E-02
  2.34726953E-01  8.13757326E-01  1.00000000E+00  3.34946043E-02  2.34726953E-01
  8.13757326E-01  1.00000000E+00  3.34946043E-02  2.34726953E-01  8.13757326E-01
  1.00000000E+00  3.34946043E-02  2.34726953E-01  8.13757326E-01  1.00000000E+00
  3.34946043E-02  2.34726953E-01  8.13757326E-01  1.00000000E+00  3.34946043E-02
  2.34726953E-01  8.13757326E-01  1.00000000E+00  3.34946043E-02  2.34726953E-01
  8.13757326E-01  1.00000000E+00
P(S=P) Contraction coefficients            R   N=         142
  0.00000000E+00  0.00000000E+00  0.00000000E+00  0.00000000E+00  0.00000000E+00
  0.00000000E+00  6.89990666E-02  3.16423961E-01  7.44308291E-01  1.00000000E+00
  0.00000000E+00  0.00000000E+00  0.00000000E+00  0.00000000E+00  0.00000000E+00
  0.00000000E+00  0.00000000E+00  6.89990666E-02  3.16423961E-01  7.44308291E-01
  1.00000000E+00  0.00000000E+00  0.00000000E+00  0.00000000E+00  0.00000000E+00
  0.00000000E+00  0.00000000E+00  0.00000000E+00  6.89990666E-02  3.16423961E-01
  7.44308291E-01  1.00000000E+00  0.00000000E+00  0.00000000E+00  0.00000000E+00
  0.00000000E+00  0.00000000E+00  0.00000000E+00  0.00000000E+00  6.89990666E-02
  3.16423961E-01  7.44308291E-01  1.00000000E+00  0.00000000E+00  0.00000000E+00
  0.00000000E+00  0.00000000E+00  0.00000000E+00  0.00000000E+00  0.00000000E+00
  6.89990666E-02  3.16423961E-01  7.44308291E-01  1.00000000E+00  0.00000000E+00
  0.00000000E+00  0.00000000E+00  0.00000000E+00  0.00000000E+00  0.00000000E+00
  0.00000000E+00  6.89990666E-02  3.16423961E-01  7.44308291E-01  1.00000000E+00
  0.00000000E+00  0.00000000E+00  0.00000000E+00  0.00000000E+00  0.00000000E+00
  0.00000000E+00  0.00000000E+00  6.89990666E-02  3.16423961E-01  7.44308291E-01
  1.00000000E+00  0.00000000E+00  0.00000000E+00  0.00000000E+00  0.00000000E+00
  0.00000000E+00  0.00000000E+00  0.00000000E+00  6.89990666E-02  3.16423961E-01
  7.44308291E-01  1.00000000E+00  0.00000000E+00  0.00000000E+00  0.00000000E+00
  0.00000000E+00  0.00000000E+00  0.00000000E+00  0.00000000E+00  6.89990666E-02
  3.16423961E-01  7.44308291E-01  1.00000000E+00  0.00000000E+00  0.00000000E+00
  0.00000000E+00  0.00000000E+00  0.00000000E+00  0.00000000E+00  0.00000000E+00
  6.89990666E-02  3.16423961E-01  7.44308291E-01  1.00000000E+00  0.00000000E+00
  0.00000000E+00  0.00000000E+00  0.00000000E+00  0.00000000E+00  0.00000000E+00
  0.00000000E+00  0.00000000E+00  0.00000000E+00  0.00000000E+00  0.00000000E+00
  0.00000000E+00  0.00000000E+00  0.00000000E+00  0.00000000E+00  0.00000000E+00
  0.00000000E+00  0.00000000E+00  0.00000000E+00  0.00000000E+00  0.00000000E+00
  0.00000000E+00  0.00000000E+00  0.00000000E+00  0.00000000E+00  0.00000000E+00
  0.00000000E+00  0.00000000E+00  0.00000000E+00  0.00000000E+00  0.00000000E+00
  0.00000000E+00  0.00000000E+00
Coordinates of each shell                  R   N=         168
  4.59814871E+00 -1.33894792E+00  3.42658758E-05  4.59814871E+00 -1.33894792E+00
  3.42658758E-05  4.59814871E+00 -1.33894792E+00  3.42658758E-05  4.59814871E+00
 -1.33894792E+00  3.42658758E-05  2.35222644E+00 -2.65014362E+00  8.91813170E-05
  2.35222644E+00 -2.65014362E+00  8.91813170E-05  2.35222644E+00 -2.65014362E+00
  8.91813170E-05  2.35222644E+00 -2.65014362E+00  8.91813170E-05  5.64648483E-05
 -1.35454566E+00  4.93780156E-05  5.64648483E-05 -1.35454566E+00  4.93780156E-05
  5.64648483E-05 -1.35454566E+00  4.93780156E-05  5.64648483E-05 -1.35454566E+00
  4.93780156E-05 -2.35154002E+00 -2.64960224E+00  1.04095036E-04 -2.35154002E+00
 -2.64960224E+00  1.04095036E-04 -2.35154002E+00 -2.64960224E+00  1.04095036E-04
 -2.35154002E+00 -2.64960224E+00  1.04095036E-04 -4.59890233E+00 -1.33884936E+00
  6.34356883E-05 -4.59890233E+00 -1.33884936E+00  6.34356883E-05 -4.59890233E+00
 -1.33884936E+00  6.34356883E-05 -4.59890233E+00 -1.33884936E+00  6.34356883E-05
 -4.59890233E+00  1.33884936E+00 -3.42952777E-05 -4.59890233E+00  1.33884936E+00
 -3.42952777E-05 -4.59890233E+00  1.33884936E+00 -3.42952777E-05 -4.59890233E+00
  1.33884936E+00 -3.42952777E-05 -2.35154002E+00  2.64960225E+00 -8.92201675E-05
 -2.35154002E+00  2.64960225E+00 -8.92201675E-05 -2.35154002E+00  2.64960225E+00
 -8.92201675E-05 -2.35154002E+00  2.64960225E+00 -8.92201675E-05  5.64700203E-05
  1.35454566E+00 -4.93998586E-05  5.64700203E-05  1.35454566E+00 -4.93998586E-05
  5.64700203E-05  1.35454566E+00 -4.93998586E-05  5.64700203E-05  1.35454566E+00
 -4.93998586E-05  2.35222645E+00  2.65014361E+00 -1.04054518E-04  2.35222645E+00
  2.65014361E+00 -1.04054518E-04  2.35222645E+00  2.65014361E+00 -1.04054518E-04
  2.35222645E+00  2.65014361E+00 -1.04054518E-04  4.59814872E+00  1.33894791E+00
 -6.34159573E-05  4.59814872E+00  1.33894791E+00 -6.34159573E-05  4.59814872E+00
  1.33894791E+00 -6.34159573E-05  4.59814872E+00  1.33894791E+00 -6.34159573E-05
  6.38331637E+00 -2.35360144E+00  6.54992692E-05  6.38331637E+00 -2.35360144E+00
  6.54992692E-05  2.34627189E+00 -4.70542568E+00  1.64158091E-04  2.34627189E+00
 -4.70542568E+00  1.64158091E-04 -2.34624058E+00 -4.70492204E+00  1.79105824E-04
 -2.34624058E+00 -4.70492204E+00  1.79105824E-04 -6.38328332E+00 -2.35445096E+00
  1.06098145E-04 -6.38328332E+00 -2.35445096E+00  1.06098145E-04 -6.38328331E+00
  2.35445096E+00 -6.55418992E-05 -6.38328331E+00  2.35445096E+00 -6.55418992E-05
 -2.34624058E+00  4.70492204E+00 -1.64136470E-04 -2.34624058E+00  4.70492204E+00
 -1.64136470E-04  2.34627189E+00  4.70542568E+00 -1.79008615E-04  2.34627189E+00
  4.70542568E+00 -1.79008615E-04  6.38331637E+00  2.35360143E+00 -1.05995266E-04
  6.38331637E+00  2.35360143E+00 -1.05995266E-04
Num ILSW                                   I              100
ILSW                                       I   N=         100
           0           1           0           0           2           0
           0           0           0           0         402          -1
           5           0           0           0           0           0
           0           0           0           0           0           0
           1           0           0           0           0           0
           0           0      100000           0          -1           0
           0           0           0           0           0           0
           0           0           0           1           0           0
           0 -2000000000           1           0           0           0
           0           0           4          52           0           0
           0           0           5           0           0           0
           0           0           0          18           0           1
           0           0           0           0           0           0
           0           0           0           0           0           0
           0           0           0           0           0           0
           0           0           0           0           0           0
           0           0           0           0
Num RLSW                                   I               52
RLSW                                       R   N=          52
  8.00000000E-01  7.20000000E-01  1.00000000E+00  8.10000000E-01  2.00000000E-01
  0.00000000E+00  0.00000000E+00  1.00000000E+00  0.00000000E+00  0.00000000E+00
  0.00000000E+00  0.00000000E+00  1.00000000E+00  0.00000000E+00  0.00000000E+00
  0.00000000E+00  0.00000000E+00  1.00000000E+00  0.00000000E+00  0.00000000E+00
  0.00000000E+00  0.00000000E+00  1.00000000E+00  0.00000000E+00  0.00000000E+00
  0.00000000E+00  0.00000000E+00  1.00000000E+00  0.00000000E+00  0.00000000E+00
  0.00000000E+00  0.00000000E+00  1.00000000E+00  0.00000000E+00  0.00000000E+00
  0.00000000E+00  0.00000000E+00  0.00000000E+00  1.00000000E+00  1.00000000E+00
  0.00000000E+00  1.00000000E+00  0.00000000E+00  0.00000000E+00  0.00000000E+00
  0.00000000E+00  0.00000000E+00  0.00000000E+00  0.00000000E+00  0.00000000E+00
  0.00000000E+00  0.00000000E+00
MxBond                                     I                3
NBond                                      I   N=          18
           3           3           3           3           3           3
           3           3           3           3           1           1
           1           1           1           1           1           1
IBond                                      I   N=          54
           2          10          11           1           3          12
           2           4           8           3           5          13
           4           6          14           5           7          15
           6           8          16           3           7           9
           8          10          17           1           9          18
           1           0           0           2           0           0
           4           0           0           5           0           0
           6           0           0           7           0           0
           9           0           0          10           0           0
RBond                                      R   N=          54
  1.50000000E+00  1.50000000E+00  1.00000000E+00  1.50000000E+00  1.50000000E+00
  1.00000000E+00  1.50000000E+00  1.50000000E+00  1.00000000E+00  1.50000000E+00
  1.50000000E+00  1.00000000E+00  1.50000000E+00  1.50000000E+00  1.00000000E+00
  1.50000000E+00  1.50000000E+00  1.00000000E+00  1.50000000E+00  1.50000000E+00
  1.00000000E+00  1.00000000E+00  1.50000000E+00  1.50000000E+00  1.50000000E+00
  1.50000000E+00  1.00000000E+00  1.50000000E+00  1.50000000E+00  1.00000000E+00
  1.00000000E+00  0.00000000E+00  0.00000000E+00  1.00000000E+00  0.00000000E+00
  0.00000000E+00  1.00000000E+00  0.00000000E+00  0.00000000E+00  1.00000000E+00
  0.00000000E+00  0.00000000E+00  1.00000000E+00  0.00000000E+00  0.00000000E+00
  1.00000000E+00  0.00000000E+00  0.00000000E+00  1.00000000E+00  0.00000000E+00
  0.00000000E+00  1.00000000E+00  0.00000000E+00  0.00000000E+00
Virial Ratio                               R      2.009915158576960E+00
SCF Energy                                 R     -3.858927058153713E+02
Total Energy                               R     -3.858927058153713E+02
RMS Density                                R      1.402046690999533E-09
Job Status                                 I                1
Nuclear derivative order                   I                0
External E-field                           R   N=          35
  0.00000000E+00  0.00000000E+00  0.00000000E+00  0.00000000E+00  0.00000000E+00
  0.00000000E+00  0.00000000E+00  0.00000000E+00  0.00000000E+00  0.00000000E+00
  0.00000000E+00  0.00000000E+00  0.00000000E+00  0.00000000E+00  0.00000000E+00
  0.00000000E+00  0.00000000E+00  0.00000000E+00  0.00000000E+00  0.00000000E+00
  0.00000000E+00  0.00000000E+00  0.00000000E+00  0.00000000E+00  0.00000000E+00
  0.00000000E+00  0.00000000E+00  0.00000000E+00  0.00000000E+00  0.00000000E+00
  0.00000000E+00  0.00000000E+00  0.00000000E+00  0.00000000E+00  0.00000000E+00
IOpCl                                      I                0
IROHF                                      I                0
Alpha Orbital Energies                     R   N=         166
 -1.00425428E+01 -1.00425428E+01 -1.00424543E+01 -1.00424543E+01 -1.00398121E+01
 -1.00398121E+01 -1.00389779E+01 -1.00389779E+01 -1.00389508E+01 -1.00389508E+01
 -6.97111469E-01 -6.97111468E-01 -6.96702543E-01 -6.96702542E-01 -6.70026463E-01
 -6.69949029E-01 -6.68497109E-01 -6.68497108E-01 -6.68181895E-01 -6.68181894E-01
 -6.55706541E-01 -5.14725127E-01 -5.14725127E-01 -5.14628600E-01 -5.14628600E-01
 -5.13364617E-01 -5.13364617E-01 -5.13306518E-01 -5.13306518E-01 -2.46332594E-01
 -2.46332594E-01 -2.46198014E-01 -2.46198014E-01 -2.24521499E-01  4.34255974E-02
  4.79003009E-02  4.79003014E-02  4.80575244E-02  4.80575250E-02  4.72590826E-01
  4.72590827E-01  4.72596712E-01  4.72596715E-01  4.79195063E-01  4.79195065E-01
  4.79397581E-01  4.79397584E-01  5.50510149E-01  5.57372839E-01  5.57483513E-01
  5.59341919E-01  5.59341922E-01  5.59904190E-01  5.59904191E-01  6.15441788E-01
  6.15441790E-01  6.16233757E-01  6.16233760E-01  5.66038095E-01  5.66038096E-01
  5.66163469E-01  5.66163469E-01  5.73612374E-01  5.73612375E-01  5.73689545E-01
  5.73689545E-01  7.11802055E-01  7.11802056E-01  7.11907603E-01  7.11907604E-01
  7.65000415E-01  7.65000417E-01  7.65316446E-01  7.65316446E-01  8.04497758E-01
  8.04497764E-01  1.03375657E+00  1.03375657E+00  1.03447977E+00  1.03447978E+00
  1.08569389E+00  1.08569390E+00  1.16246672E+00  1.16246673E+00  1.16440359E+00
  1.16440361E+00  1.19630131E+00  1.19630131E+00  1.19726338E+00  1.19726339E+00
  1.21429949E+00  1.21429950E+00  1.21519404E+00  1.21519404E+00  1.28229098E+00
  1.28229098E+00  1.28431800E+00  1.28431800E+00  1.28440086E+00  1.28440086E+00
  1.29268437E+00  1.29268437E+00  1.29268645E+00  1.29268645E+00  1.35541445E+00
  1.35541445E+00  1.47723172E+00  1.47723174E+00  1.47898758E+00  1.47898759E+00
  1.59542989E+00  1.59542990E+00  1.59621208E+00  1.59621209E+00  1.73533658E+00
  1.73533658E+00  1.73537831E+00  1.73537831E+00  1.76238547E+00  1.76238547E+00
  1.76251775E+00  1.76251775E+00  1.83049150E+00  1.83049151E+00  1.92496386E+00
  1.92496386E+00  2.19220642E+00  2.19220643E+00  2.19262424E+00  2.19262425E+00
  2.30836403E+00  2.30836403E+00  1.00000000E+03  1.00000000E+03  1.00000000E+03
  1.00000000E+03  1.00000000E+03  1.00000000E+03  1.00000000E+03  1.00000000E+03
  1.00000000E+03  1.00000000E+03  1.00000000E+03  1.00000000E+03  1.00000000E+03
  1.00000000E+03  1.00000000E+03  1.00000000E+03  1.00000000E+03  1.00000000E+03
  1.00000000E+03  1.00000000E+03  1.00000000E+03  1.00000000E+03  1.00000000E+03
  1.00000000E+03  1.00000000E+03  1.00000000E+03  1.00000000E+03  1.00000000E+03
  1.00000000E+03  1.00000000E+03  1.00000000E+03  1.00000000E+03  1.00000000E+03
  1.00000000E+03
Alpha MO coefficients                      R   N=       27556
  1.53720680E-05  1.50247734E-05 -7.07124007E-05 -1.35848028E-05  7.13753268E-10
  7.08680522E-04 -6.21664774E-04  3.20283322E-04 -9.67362240E-09  5.27884243E-05
  4.60283379E-05  7.09201487E-05 -1.03211264E-05  4.39527560E-10  1.08202862E-09
 -2.85106673E-05  6.55667813E-04 -3.24072390E-04  7.05999606E-05 -1.53030025E-09
 -3.80602584E-03  1.27755263E-03 -1.38713499E-03  4.65339638E-08 -9.88683655E-05
 -9.69831394E-05 -1.34734745E-04 -6.08356711E-07 -1.08048952E-10 -1.58732968E-09
 -3.47570439E-04  5.45109917E-05 -6.43127555E-04  1.52347293E-04 -3.57887554E-09
 -2.47351671E-02  1.11593686E-02 -4.83092390E-03  1.40671029E-07 -1.05521014E-03
 -1.04164173E-03 -1.11965936E-03  1.08147009E-05 -6.35708827E-10 -3.32157081E-09
 -4.28410632E-04 -1.80762091E-03  2.28766893E-03  5.10367610E-03 -1.93552653E-07
  1.53023995E-02  1.00078500E-02  2.13814463E-02 -8.11978430E-07  5.00371358E-04
  4.75849662E-04  5.35733422E-04 -1.64544349E-05  7.29163493E-10  2.56745682E-09
  3.53016241E-03  2.89148876E-03 -1.38336249E-03 -1.75720721E-02  6.45679619E-07
 -4.53151575E-02 -1.64074001E-02 -5.02061804E-02  1.88412926E-06 -1.57021765E-03
 -2.02992705E-03 -1.66274008E-03  2.79771574E-05 -1.37422049E-09  1.53806624E-08
  1.00958340E+00 -6.65048632E-03  5.08517162E-03 -1.04238592E-03  2.23205579E-08
  4.69006311E-02  3.09220599E-02 -1.30468610E-02  3.79124550E-07 -6.16513220E-03
 -6.10569615E-03 -6.17211729E-03  9.10307602E-05 -3.36545323E-09 -3.07245239E-09
  4.03391428E-03  2.15456529E-03  1.68641000E-02  1.14077324E-02 -4.69542600E-07