HF file generated by AutoMR of MOKIT
Stability RHF                                                         6-31G(d)
Number of atoms                            I               18
Info1-9                                    I   N=           9
          28          27           0           0           0         110
           7           1           2
Full Title                                 C   N=           3
HF file generated by AutoMR of MOKIT
Route                                      C   N=           8
#p scf(xqc,maxcycle=512) nosymm int(nobasistransform) UHF/6-
31G* guess=mix stable=opt 6D 10F
Charge                                     I                0
Multiplicity                               I                1
Number of electrons                        I               68
Number of alpha electrons                  I               34
Number of beta electrons                   I               34
Number of basis functions                  I              166
Number of independent functions            I              166
Number of point charges in /Mol/           I                0
Number of translation vectors              I                0
Atomic numbers                             I   N=          18
           6           6           6           6           6           6
           6           6           6           6           1           1
           1           1           1           1           1           1
Nuclear charges                            R   N=          18
  6.00000000E+00  6.00000000E+00  6.00000000E+00  6.00000000E+00  6.00000000E+00
  6.00000000E+00  6.00000000E+00  6.00000000E+00  6.00000000E+00  6.00000000E+00
  1.00000000E+00  1.00000000E+00  1.00000000E+00  1.00000000E+00  1.00000000E+00
  1.00000000E+00  1.00000000E+00  1.00000000E+00
Current cartesian coordinates              R   N=          54
 -6.81671660E+00 -1.33895435E+00  5.87723722E-04 -4.57079309E+00 -2.65014793E+00
  5.32808281E-04 -2.21862434E+00 -1.35454775E+00  5.72605913E-04  1.32973357E-01
 -2.64960212E+00  5.17898342E-04  2.38033444E+00 -1.33884711E+00  5.58546351E-04
  2.38033191E+00  1.33885161E+00  6.56282986E-04  1.32968368E-01  2.64960237E+00
  7.11198427E-04 -2.21862691E+00  1.35454357E+00  6.71381898E-04 -4.57079810E+00
  2.65013929E+00  7.26032777E-04 -6.81671914E+00  1.33894148E+00  6.85403665E-04
 -8.60188331E+00 -2.35360956E+00  5.56486549E-04 -4.56483662E+00 -4.70542999E+00
  4.57823948E-04  1.27675869E-01 -4.70492192E+00  4.42876215E-04  4.16471638E+00
 -2.35444703E+00  5.15895232E-04  4.16471192E+00  2.35445489E+00  6.87539056E-04
  1.27666987E-01  4.70492215E+00  7.86126068E-04 -4.56484548E+00  4.70542138E+00
  8.00998212E-04 -8.60188775E+00  2.35359332E+00  7.27979195E-04
Number of symbols in /Mol/                 I                0
Force Field                                I                0
Atom Types                                 C   N=          18




Int Atom Types                             I   N=          18
           0           0           0           0           0           0
           0           0           0           0           0           0
           0           0           0           0           0           0
MM charges                                 R   N=          18
  0.00000000E+00  0.00000000E+00  0.00000000E+00  0.00000000E+00  0.00000000E+00
  0.00000000E+00  0.00000000E+00  0.00000000E+00  0.00000000E+00  0.00000000E+00
  0.00000000E+00  0.00000000E+00  0.00000000E+00  0.00000000E+00  0.00000000E+00
  0.00000000E+00  0.00000000E+00  0.00000000E+00
Integer atomic weights                     I   N=          18
          12          12          12          12          12          12
          12          12          12          12           1           1
           1           1           1           1           1           1
Real atomic weights                        R   N=          18
  1.20000000E+01  1.20000000E+01  1.20000000E+01  1.20000000E+01  1.20000000E+01
  1.20000000E+01  1.20000000E+01  1.20000000E+01  1.20000000E+01  1.20000000E+01
  1.00782504E+00  1.00782504E+00  1.00782504E+00  1.00782504E+00  1.00782504E+00
  1.00782504E+00  1.00782504E+00  1.00782504E+00
Atom fragment info                         I   N=          18
           0           0           0           0           0           0
           0           0           0           0           0           0
           0           0           0           0           0           0
Atom residue num                           I   N=          18
           0           0           0           0           0           0
           0           0           0           0           0           0
           0           0           0           0           0           0
Nuclear spins                              I   N=          18
           0           0           0           0           0           0
           0           0           0           0           1           1
           1           1           1           1           1           1
Nuclear ZEff                               R   N=          18
 -3.60000000E+00 -3.60000000E+00 -3.60000000E+00 -3.60000000E+00 -3.60000000E+00
 -3.60000000E+00 -3.60000000E+00 -3.60000000E+00 -3.60000000E+00 -3.60000000E+00
 -1.00000000E+00 -1.00000000E+00 -1.00000000E+00 -1.00000000E+00 -1.00000000E+00
 -1.00000000E+00 -1.00000000E+00 -1.00000000E+00
Nuclear ZNuc                               R   N=          18
  6.00000000E+00  6.00000000E+00  6.00000000E+00  6.00000000E+00  6.00000000E+00
  6.00000000E+00  6.00000000E+00  6.00000000E+00  6.00000000E+00  6.00000000E+00
  1.00000000E+00  1.00000000E+00  1.00000000E+00  1.00000000E+00  1.00000000E+00
  1.00000000E+00  1.00000000E+00  1.00000000E+00
Nuclear QMom                               R   N=          18
  0.00000000E+00  0.00000000E+00  0.00000000E+00  0.00000000E+00  0.00000000E+00
  0.00000000E+00  0.00000000E+00  0.00000000E+00  0.00000000E+00  0.00000000E+00
  0.00000000E+00  0.00000000E+00  0.00000000E+00  0.00000000E+00  0.00000000E+00
  0.00000000E+00  0.00000000E+00  0.00000000E+00
Nuclear GFac                               R   N=          18
  0.00000000E+00  0.00000000E+00  0.00000000E+00  0.00000000E+00  0.00000000E+00
  0.00000000E+00  0.00000000E+00  0.00000000E+00  0.00000000E+00  0.00000000E+00
  2.79284600E+00  2.79284600E+00  2.79284600E+00  2.79284600E+00  2.79284600E+00
  2.79284600E+00  2.79284600E+00  2.79284600E+00
MicOpt                                     I   N=          18
          -1          -1          -1          -1          -1          -1
          -1          -1          -1          -1          -1          -1
          -1          -1          -1          -1          -1          -1
Number of residues                         I                0
Number of secondary structures             I                0
Number of contracted shells                I               56
Number of primitive shells                 I              142
Pure/Cartesian d shells                    I                1
Pure/Cartesian f shells                    I                1
Highest angular momentum                   I                2
Largest degree of contraction              I                6
Shell types                                I   N=          56
           0          -1          -1           2           0          -1
          -1           2           0          -1          -1           2
           0          -1          -1           2           0          -1
          -1           2           0          -1          -1           2
           0          -1          -1           2           0          -1
          -1           2           0          -1          -1           2
           0          -1          -1           2           0           0
           0           0           0           0           0           0
           0           0           0           0           0           0
           0           0
Number of primitives per shell             I   N=          56
           6           3           1           1           6           3
           1           1           6           3           1           1
           6           3           1           1           6           3
           1           1           6           3           1           1
           6           3           1           1           6           3
           1           1           6           3           1           1
           6           3           1           1           3           1
           3           1           3           1           3           1
           3           1           3           1           3           1
           3           1
Shell to atom map                          I   N=          56
           1           1           1           1           2           2
           2           2           3           3           3           3
           4           4           4           4           5           5
           5           5           6           6           6           6
           7           7           7           7           8           8
           8           8           9           9           9           9
          10          10          10          10          11          11
          12          12          13          13          14          14
          15          15          16          16          17          17
          18          18
Primitive exponents                        R   N=         142
  3.04752488E+03  4.57369518E+02  1.03948685E+02  2.92101553E+01  9.28666296E+00
  3.16392696E+00  7.86827235E+00  1.88128854E+00  5.44249258E-01  1.68714478E-01
  8.00000000E-01  3.04752488E+03  4.57369518E+02  1.03948685E+02  2.92101553E+01
  9.28666296E+00  3.16392696E+00  7.86827235E+00  1.88128854E+00  5.44249258E-01
  1.68714478E-01  8.00000000E-01  3.04752488E+03  4.57369518E+02  1.03948685E+02
  2.92101553E+01  9.28666296E+00  3.16392696E+00  7.86827235E+00  1.88128854E+00
  5.44249258E-01  1.68714478E-01  8.00000000E-01  3.04752488E+03  4.57369518E+02
  1.03948685E+02  2.92101553E+01  9.28666296E+00  3.16392696E+00  7.86827235E+00
  1.88128854E+00  5.44249258E-01  1.68714478E-01  8.00000000E-01  3.04752488E+03
  4.57369518E+02  1.03948685E+02  2.92101553E+01  9.28666296E+00  3.16392696E+00
  7.86827235E+00  1.88128854E+00  5.44249258E-01  1.68714478E-01  8.00000000E-01
  3.04752488E+03  4.57369518E+02  1.03948685E+02  2.92101553E+01  9.28666296E+00
  3.16392696E+00  7.86827235E+00  1.88128854E+00  5.44249258E-01  1.68714478E-01
  8.00000000E-01  3.04752488E+03  4.57369518E+02  1.03948685E+02  2.92101553E+01
  9.28666296E+00  3.16392696E+00  7.86827235E+00  1.88128854E+00  5.44249258E-01
  1.68714478E-01  8.00000000E-01  3.04752488E+03  4.57369518E+02  1.03948685E+02
  2.92101553E+01  9.28666296E+00  3.16392696E+00  7.86827235E+00  1.88128854E+00
  5.44249258E-01  1.68714478E-01  8.00000000E-01  3.04752488E+03  4.57369518E+02
  1.03948685E+02  2.92101553E+01  9.28666296E+00  3.16392696E+00  7.86827235E+00
  1.88128854E+00  5.44249258E-01  1.68714478E-01  8.00000000E-01  3.04752488E+03
  4.57369518E+02  1.03948685E+02  2.92101553E+01  9.28666296E+00  3.16392696E+00
  7.86827235E+00  1.88128854E+00  5.44249258E-01  1.68714478E-01  8.00000000E-01
  1.87311370E+01  2.82539436E+00  6.40121692E-01  1.61277759E-01  1.87311370E+01
  2.82539436E+00  6.40121692E-01  1.61277759E-01  1.87311370E+01  2.82539436E+00
  6.40121692E-01  1.61277759E-01  1.87311370E+01  2.82539436E+00  6.40121692E-01
  1.61277759E-01  1.87311370E+01  2.82539436E+00  6.40121692E-01  1.61277759E-01
  1.87311370E+01  2.82539436E+00  6.40121692E-01  1.61277759E-01  1.87311370E+01
  2.82539436E+00  6.40121692E-01  1.61277759E-01  1.87311370E+01  2.82539436E+00
  6.40121692E-01  1.61277759E-01
Contraction coefficients                   R   N=         142
  1.83473713E-03  1.40373228E-02  6.88426223E-02  2.32184443E-01  4.67941348E-01
  3.62311985E-01 -1.19332420E-01 -1.60854152E-01  1.14345644E+00  1.00000000E+00
  1.00000000E+00  1.83473713E-03  1.40373228E-02  6.88426223E-02  2.32184443E-01
  4.67941348E-01  3.62311985E-01 -1.19332420E-01 -1.60854152E-01  1.14345644E+00
  1.00000000E+00  1.00000000E+00  1.83473713E-03  1.40373228E-02  6.88426223E-02
  2.32184443E-01  4.67941348E-01  3.62311985E-01 -1.19332420E-01 -1.60854152E-01
  1.14345644E+00  1.00000000E+00  1.00000000E+00  1.83473713E-03  1.40373228E-02
  6.88426223E-02  2.32184443E-01  4.67941348E-01  3.62311985E-01 -1.19332420E-01
 -1.60854152E-01  1.14345644E+00  1.00000000E+00  1.00000000E+00  1.83473713E-03
  1.40373228E-02  6.88426223E-02  2.32184443E-01  4.67941348E-01  3.62311985E-01
 -1.19332420E-01 -1.60854152E-01  1.14345644E+00  1.00000000E+00  1.00000000E+00
  1.83473713E-03  1.40373228E-02  6.88426223E-02  2.32184443E-01  4.67941348E-01
  3.62311985E-01 -1.19332420E-01 -1.60854152E-01  1.14345644E+00  1.00000000E+00
  1.00000000E+00  1.83473713E-03  1.40373228E-02  6.88426223E-02  2.32184443E-01
  4.67941348E-01  3.62311985E-01 -1.19332420E-01 -1.60854152E-01  1.14345644E+00
  1.00000000E+00  1.00000000E+00  1.83473713E-03  1.40373228E-02  6.88426223E-02
  2.32184443E-01  4.67941348E-01  3.62311985E-01 -1.19332420E-01 -1.60854152E-01
  1.14345644E+00  1.00000000E+00  1.00000000E+00  1.83473713E-03  1.40373228E-02
  6.88426223E-02  2.32184443E-01  4.67941348E-01  3.62311985E-01 -1.19332420E-01
 -1.60854152E-01  1.14345644E+00  1.00000000E+00  1.00000000E+00  1.83473713E-03
  1.40373228E-02  6.88426223E-02  2.32184443E-01  4.67941348E-01  3.62311985E-01
 -1.19332420E-01 -1.60854152E-01  1.14345644E+00  1.00000000E+00  1.00000000E+00
  3.34946043E-02  2.34726953E-01  8.13757326E-01  1.00000000E+00  3.34946043E-02
  2.34726953E-01  8.13757326E-01  1.00000000E+00  3.34946043E-02  2.34726953E-01
  8.13757326E-01  1.00000000E+00  3.34946043E-02  2.34726953E-01  8.13757326E-01
  1.00000000E+00  3.34946043E-02  2.34726953E-01  8.13757326E-01  1.00000000E+00
  3.34946043E-02  2.34726953E-01  8.13757326E-01  1.00000000E+00  3.34946043E-02
  2.34726953E-01  8.13757326E-01  1.00000000E+00  3.34946043E-02  2.34726953E-01
  8.13757326E-01  1.00000000E+00
P(S=P) Contraction coefficients            R   N=         142
  0.00000000E+00  0.00000000E+00  0.00000000E+00  0.00000000E+00  0.00000000E+00
  0.00000000E+00  6.89990666E-02  3.16423961E-01  7.44308291E-01  1.00000000E+00
  0.00000000E+00  0.00000000E+00  0.00000000E+00  0.00000000E+00  0.00000000E+00
  0.00000000E+00  0.00000000E+00  6.89990666E-02  3.16423961E-01  7.44308291E-01
  1.00000000E+00  0.00000000E+00  0.00000000E+00  0.00000000E+00  0.00000000E+00
  0.00000000E+00  0.00000000E+00  0.00000000E+00  6.89990666E-02  3.16423961E-01
  7.44308291E-01  1.00000000E+00  0.00000000E+00  0.00000000E+00  0.00000000E+00
  0.00000000E+00  0.00000000E+00  0.00000000E+00  0.00000000E+00  6.89990666E-02
  3.16423961E-01  7.44308291E-01  1.00000000E+00  0.00000000E+00  0.00000000E+00
  0.00000000E+00  0.00000000E+00  0.00000000E+00  0.00000000E+00  0.00000000E+00
  6.89990666E-02  3.16423961E-01  7.44308291E-01  1.00000000E+00  0.00000000E+00
  0.00000000E+00  0.00000000E+00  0.00000000E+00  0.00000000E+00  0.00000000E+00
  0.00000000E+00  6.89990666E-02  3.16423961E-01  7.44308291E-01  1.00000000E+00
  0.00000000E+00  0.00000000E+00  0.00000000E+00  0.00000000E+00  0.00000000E+00
  0.00000000E+00  0.00000000E+00  6.89990666E-02  3.16423961E-01  7.44308291E-01
  1.00000000E+00  0.00000000E+00  0.00000000E+00  0.00000000E+00  0.00000000E+00
  0.00000000E+00  0.00000000E+00  0.00000000E+00  6.89990666E-02  3.16423961E-01
  7.44308291E-01  1.00000000E+00  0.00000000E+00  0.00000000E+00  0.00000000E+00
  0.00000000E+00  0.00000000E+00  0.00000000E+00  0.00000000E+00  6.89990666E-02
  3.16423961E-01  7.44308291E-01  1.00000000E+00  0.00000000E+00  0.00000000E+00
  0.00000000E+00  0.00000000E+00  0.00000000E+00  0.00000000E+00  0.00000000E+00
  6.89990666E-02  3.16423961E-01  7.44308291E-01  1.00000000E+00  0.00000000E+00
  0.00000000E+00  0.00000000E+00  0.00000000E+00  0.00000000E+00  0.00000000E+00
  0.00000000E+00  0.00000000E+00  0.00000000E+00  0.00000000E+00  0.00000000E+00
  0.00000000E+00  0.00000000E+00  0.00000000E+00  0.00000000E+00  0.00000000E+00
  0.00000000E+00  0.00000000E+00  0.00000000E+00  0.00000000E+00  0.00000000E+00
  0.00000000E+00  0.00000000E+00  0.00000000E+00  0.00000000E+00  0.00000000E+00
  0.00000000E+00  0.00000000E+00  0.00000000E+00  0.00000000E+00  0.00000000E+00
  0.00000000E+00  0.00000000E+00
Coordinates of each shell                  R   N=         168
 -6.81671660E+00 -1.33895435E+00  5.87723722E-04 -6.81671660E+00 -1.33895435E+00
  5.87723722E-04 -6.81671660E+00 -1.33895435E+00  5.87723722E-04 -6.81671660E+00
 -1.33895435E+00  5.87723722E-04 -4.57079309E+00 -2.65014793E+00  5.32808281E-04
 -4.57079309E+00 -2.65014793E+00  5.32808281E-04 -4.57079309E+00 -2.65014793E+00
  5.32808281E-04 -4.57079309E+00 -2.65014793E+00  5.32808281E-04 -2.21862434E+00
 -1.35454775E+00  5.72605913E-04 -2.21862434E+00 -1.35454775E+00  5.72605913E-04
 -2.21862434E+00 -1.35454775E+00  5.72605913E-04 -2.21862434E+00 -1.35454775E+00
  5.72605913E-04  1.32973357E-01 -2.64960212E+00  5.17898342E-04  1.32973357E-01
 -2.64960212E+00  5.17898342E-04  1.32973357E-01 -2.64960212E+00  5.17898342E-04
  1.32973357E-01 -2.64960212E+00  5.17898342E-04  2.38033444E+00 -1.33884711E+00
  5.58546351E-04  2.38033444E+00 -1.33884711E+00  5.58546351E-04  2.38033444E+00
 -1.33884711E+00  5.58546351E-04  2.38033444E+00 -1.33884711E+00  5.58546351E-04
  2.38033191E+00  1.33885161E+00  6.56282986E-04  2.38033191E+00  1.33885161E+00
  6.56282986E-04  2.38033191E+00  1.33885161E+00  6.56282986E-04  2.38033191E+00
  1.33885161E+00  6.56282986E-04  1.32968368E-01  2.64960237E+00  7.11198427E-04
  1.32968368E-01  2.64960237E+00  7.11198427E-04  1.32968368E-01  2.64960237E+00
  7.11198427E-04  1.32968368E-01  2.64960237E+00  7.11198427E-04 -2.21862691E+00
  1.35454357E+00  6.71381898E-04 -2.21862691E+00  1.35454357E+00  6.71381898E-04
 -2.21862691E+00  1.35454357E+00  6.71381898E-04 -2.21862691E+00  1.35454357E+00
  6.71381898E-04 -4.57079810E+00  2.65013929E+00  7.26032777E-04 -4.57079810E+00
  2.65013929E+00  7.26032777E-04 -4.57079810E+00  2.65013929E+00  7.26032777E-04
 -4.57079810E+00  2.65013929E+00  7.26032777E-04 -6.81671914E+00  1.33894148E+00
  6.85403665E-04 -6.81671914E+00  1.33894148E+00  6.85403665E-04 -6.81671914E+00
  1.33894148E+00  6.85403665E-04 -6.81671914E+00  1.33894148E+00  6.85403665E-04
 -8.60188331E+00 -2.35360956E+00  5.56486549E-04 -8.60188331E+00 -2.35360956E+00
  5.56486549E-04 -4.56483662E+00 -4.70542999E+00  4.57823948E-04 -4.56483662E+00
 -4.70542999E+00  4.57823948E-04  1.27675869E-01 -4.70492192E+00  4.42876215E-04
  1.27675869E-01 -4.70492192E+00  4.42876215E-04  4.16471638E+00 -2.35444703E+00
  5.15895232E-04  4.16471638E+00 -2.35444703E+00  5.15895232E-04  4.16471192E+00
  2.35445489E+00  6.87539056E-04  4.16471192E+00  2.35445489E+00  6.87539056E-04
  1.27666987E-01  4.70492215E+00  7.86126068E-04  1.27666987E-01  4.70492215E+00
  7.86126068E-04 -4.56484548E+00  4.70542138E+00  8.00998212E-04 -4.56484548E+00
  4.70542138E+00  8.00998212E-04 -8.60188775E+00  2.35359332E+00  7.27979195E-04
 -8.60188775E+00  2.35359332E+00  7.27979195E-04
Num ILSW                                   I              100
ILSW                                       I   N=         100
           0           1           0           0           2           1
           0           0           0           0           0          -1
           5           0           0           1           0           0
           0           0           0           0           0           0
           1           1           0           0           0           0
           0           0      100000           0          -1           0
           0           0           0           0           0           0
           0           0           0           1           0           0
           0 -2000000000           1           0           0           0
           0           0           4          52           0           0
           0           0           0           0           0           0
           0           0           0          18           0           1
           0           0           0           0           0           0
           0           0           0           0           0           0
           0           0           0           0           0           0
           0           0           0           0           0           0
           0           0           0           0
Num RLSW                                   I               52
RLSW                                       R   N=          52
  1.00000000E+00  1.00000000E+00  1.00000000E+00  1.00000000E+00  1.00000000E+00
  0.00000000E+00  0.00000000E+00  1.00000000E+00  0.00000000E+00  0.00000000E+00
  0.00000000E+00  0.00000000E+00  1.00000000E+00  0.00000000E+00  0.00000000E+00
  0.00000000E+00  0.00000000E+00  1.00000000E+00  0.00000000E+00  0.00000000E+00
  0.00000000E+00  0.00000000E+00  1.00000000E+00  0.00000000E+00  0.00000000E+00
  0.00000000E+00  0.00000000E+00  1.00000000E+00  0.00000000E+00  0.00000000E+00
  0.00000000E+00  0.00000000E+00  1.00000000E+00  0.00000000E+00  0.00000000E+00
  0.00000000E+00  0.00000000E+00  0.00000000E+00  1.00000000E+00  1.00000000E+00
  0.00000000E+00  1.00000000E+00  0.00000000E+00  0.00000000E+00  0.00000000E+00
  0.00000000E+00  0.00000000E+00  0.00000000E+00  0.00000000E+00  0.00000000E+00
  0.00000000E+00  0.00000000E+00
MxBond                                     I                3
NBond                                      I   N=          18
           3           3           3           3           3           3
           3           3           3           3           1           1
           1           1           1           1           1           1
IBond                                      I   N=          54
           2          10          11           1           3          12
           2           4           8           3           5          13
           4           6          14           5           7          15
           6           8          16           3           7           9
           8          10          17           1           9          18
           1           0           0           2           0           0
           4           0           0           5           0           0
           6           0           0           7           0           0
           9           0           0          10           0           0
RBond                                      R   N=          54
  1.50000000E+00  1.50000000E+00  1.00000000E+00  1.50000000E+00  1.50000000E+00
  1.00000000E+00  1.50000000E+00  1.50000000E+00  1.00000000E+00  1.50000000E+00
  1.50000000E+00  1.00000000E+00  1.50000000E+00  1.50000000E+00  1.00000000E+00
  1.50000000E+00  1.50000000E+00  1.00000000E+00  1.50000000E+00  1.50000000E+00
  1.00000000E+00  1.00000000E+00  1.50000000E+00  1.50000000E+00  1.50000000E+00
  1.50000000E+00  1.00000000E+00  1.50000000E+00  1.50000000E+00  1.00000000E+00
  1.00000000E+00  0.00000000E+00  0.00000000E+00  1.00000000E+00  0.00000000E+00
  0.00000000E+00  1.00000000E+00  0.00000000E+00  0.00000000E+00  1.00000000E+00
  0.00000000E+00  0.00000000E+00  1.00000000E+00  0.00000000E+00  0.00000000E+00
  1.00000000E+00  0.00000000E+00  0.00000000E+00  1.00000000E+00  0.00000000E+00
  0.00000000E+00  1.00000000E+00  0.00000000E+00  0.00000000E+00
Virial Ratio                               R      2.001022781615124E+00
SCF Energy                                 R     -3.833683938290075E+02
Total Energy                               R     -3.833683938290075E+02
S**2                                       R      1.150566338053181E+00
S**2 after annihilation                    R      3.023571860776272E+00
RMS Density                                R      8.592698426438086E-09
Job Status                                 I                1
Nuclear derivative order                   I                0
External E-field                           R   N=          35
  0.00000000E+00  0.00000000E+00  0.00000000E+00  0.00000000E+00  0.00000000E+00
  0.00000000E+00  0.00000000E+00  0.00000000E+00  0.00000000E+00  0.00000000E+00
  0.00000000E+00  0.00000000E+00  0.00000000E+00  0.00000000E+00  0.00000000E+00
  0.00000000E+00  0.00000000E+00  0.00000000E+00  0.00000000E+00  0.00000000E+00
  0.00000000E+00  0.00000000E+00  0.00000000E+00  0.00000000E+00  0.00000000E+00
  0.00000000E+00  0.00000000E+00  0.00000000E+00  0.00000000E+00  0.00000000E+00
  0.00000000E+00  0.00000000E+00  0.00000000E+00  0.00000000E+00  0.00000000E+00
IOpCl                                      I                0
IROHF                                      I                0
Alpha Orbital Energies                     R   N=         166
  2.00000000E+00  2.00000000E+00  2.00000000E+00  2.00000000E+00  2.00000000E+00
  2.00000000E+00  2.00000000E+00  2.00000000E+00  2.00000000E+00  2.00000000E+00
  1.99240566E+00  1.99238344E+00  1.99237259E+00  1.99236800E+00  1.99100455E+00
  1.99099273E+00  1.99084642E+00  1.99084451E+00  1.99083429E+00  1.99081471E+00
  1.99041951E+00  1.98458208E+00  1.98457672E+00  1.98456633E+00  1.98455709E+00
  1.98455318E+00  1.98455084E+00  1.98455000E+00  1.98452817E+00  1.97485077E+00
  1.94955592E+00  1.94955485E+00  1.94952494E+00  1.94952439E+00  5.04756099E-02
  5.04750594E-02  5.04451513E-02  5.04440832E-02  2.51492288E-02  1.54718342E-02
  1.54500017E-02  1.54491622E-02  1.54468184E-02  1.54429053E-02  1.54336706E-02
  1.54232753E-02  1.54179189E-02  9.58048689E-03  9.18529367E-03  9.16570860E-03
  9.15549266E-03  9.15357527E-03  9.00727493E-03  8.99544890E-03  7.63200083E-03
  7.62740844E-03  7.61655909E-03  7.59434491E-03  0.00000000E+00  0.00000000E+00
  0.00000000E+00  0.00000000E+00  0.00000000E+00  0.00000000E+00  0.00000000E+00
  0.00000000E+00  0.00000000E+00  0.00000000E+00  0.00000000E+00  0.00000000E+00
  0.00000000E+00  0.00000000E+00  0.00000000E+00  0.00000000E+00  0.00000000E+00
  0.00000000E+00  0.00000000E+00  0.00000000E+00  0.00000000E+00  0.00000000E+00
  0.00000000E+00  0.00000000E+00  0.00000000E+00  0.00000000E+00  0.00000000E+00
  0.00000000E+00  0.00000000E+00  0.00000000E+00  0.00000000E+00  0.00000000E+00
  0.00000000E+00  0.00000000E+00  0.00000000E+00  0.00000000E+00  0.00000000E+00
  0.00000000E+00  0.00000000E+00  0.00000000E+00  0.00000000E+00  0.00000000E+00
  0.00000000E+00  0.00000000E+00  0.00000000E+00  0.00000000E+00  0.00000000E+00
  0.00000000E+00  0.00000000E+00  0.00000000E+00  0.00000000E+00  0.00000000E+00
  0.00000000E+00  0.00000000E+00  0.00000000E+00  0.00000000E+00  0.00000000E+00
  0.00000000E+00  0.00000000E+00  0.00000000E+00  0.00000000E+00  0.00000000E+00
  0.00000000E+00  0.00000000E+00  0.00000000E+00  0.00000000E+00  0.00000000E+00
  0.00000000E+00  0.00000000E+00  0.00000000E+00  0.00000000E+00  0.00000000E+00
  0.00000000E+00  0.00000000E+00  0.00000000E+00  0.00000000E+00  0.00000000E+00
  0.00000000E+00  0.00000000E+00  0.00000000E+00  0.00000000E+00  0.00000000E+00
  0.00000000E+00  0.00000000E+00  0.00000000E+00  0.00000000E+00  0.00000000E+00
  0.00000000E+00  0.00000000E+00  0.00000000E+00  0.00000000E+00  0.00000000E+00
  0.00000000E+00  0.00000000E+00  0.00000000E+00  0.00000000E+00  0.00000000E+00
  0.00000000E+00  0.00000000E+00  0.00000000E+00  0.00000000E+00  0.00000000E+00
  0.00000000E+00  0.00000000E+00  0.00000000E+00  0.00000000E+00  0.00000000E+00
  0.00000000E+00
Alpha MO coefficients                      R   N=       27556
  3.03856235E-02  2.27867354E-03  1.31516510E-03  1.11468251E-04  1.46820668E-07
 -2.27518470E-03 -7.53371110E-04 -7.11020029E-04  9.93595981E-08  7.39292145E-05
  1.37943399E-04 -8.56553934E-05 -1.20792861E-04  0.00000000E+00  0.00000000E+00
 -2.83035397E-02 -1.69802985E-04 -2.31903608E-03 -7.19140938E-04  1.52573017E-07
  5.92677684E-03  2.47540346E-04  1.37762675E-03  1.88483626E-07 -5.67851495E-04
 -1.66371451E-04 -8.61378109E-05 -2.73207270E-04 -1.32845997E-08  0.00000000E+00
  8.28707531E-01  2.25567797E-02  3.05608552E-06  3.04312708E-03  1.47466474E-07
 -1.87099869E-02  3.75549998E-06 -1.22168107E-03 -2.73524375E-08 -1.14154029E-03
 -7.05679458E-04 -1.81832296E-03 -4.99667873E-07  0.00000000E+00  2.75634286E-08
 -2.83897122E-02 -1.68808817E-04  2.31707717E-03 -7.21344398E-04  1.26797475E-07
  5.92909078E-03 -2.48843693E-04  1.37449371E-03  1.76256416E-07 -5.67505344E-04
 -1.65849594E-04 -8.60231661E-05  2.72587186E-04  1.94956247E-08  0.00000000E+00
  3.05812262E-02  2.28041703E-03 -1.31585432E-03  1.10048584E-04  1.91286549E-07
 -2.27826565E-03  7.51740124E-04 -7.12463990E-04  1.11681303E-07  7.38916454E-05
  1.37206201E-04 -8.59218253E-05  1.20922871E-04  0.00000000E+00  0.00000000E+00
 -4.73683967E-02 -2.73772598E-04 -3.06241416E-04 -5.52518016E-04  2.09761752E-08
  3.76587452E-03 -1.11193174E-03 -8.50587849E-04  1.34373326E-08  7.06739397E-05
  4.54125402E-06 -4.03983691E-06  6.82624265E-05  0.00000000E+00  0.00000000E+00
  1.80950118E-02  3.17103058E-03 -2.71282651E-03 -2.39517898E-03 -2.20969356E-07
 -2.83843749E-03 -2.56113008E-04  8.11838678E-04 -8.12902855E-08  6.41547589E-04
  1.90213125E-04 -8.52907804E-05  2.86318299E-04  1.87496452E-08  1.50087740E-08
 -5.48114751E-01 -8.59770357E-03  6.05415706E-06  1.66215556E-03 -2.02885173E-07
  1.91334685E-02 -1.97183984E-06 -2.06500677E-03 -2.65388590E-07  8.22493714E-04
  3.31863483E-04  8.47449385E-04  0.00000000E+00  0.00000000E+00 -3.04607569E-08
  1.80367528E-02  3.16302043E-03  2.70344709E-03 -2.39552102E-03 -3.42300470E-07
 -2.84755235E-03  2.54279770E-04  8.14028425E-04 -1.64305456E-07  6.41715666E-04
  1.89962859E-04 -8.48706199E-05 -2.85902081E-04 -1.97573288E-08  2.07197602E-08